[{"__ndarray__": [[24, 24], "float64", [53.63426236105003, 9.155542174040957e-15, -0.13120806334198343, 16.365737638824548, 5.818183855276757e-15, 0.13120806352110892, 16.36573763868124, -9.28482530917465e-16, -0.1312080633129607, -16.36573763899324, -1.3816644185469401e-14, 0.13120806325012369, -0.6665239897255351, -8.041710772617747e-15, 0.01184850811368704, 0.6665239900423175, -7.971313145502106e-15, -0.011848508291143561, 0.6665239898743665, 1.634663745770992e-14, 0.011848508319525886, -0.6665239897798729, -1.2702573110473161e-15, -0.011848508281231518, 9.155542174040957e-15, 70.0, 1.2944739979541217e-14, -9.155542174775461e-15, 8.316242189160441e-29, -1.2944739981739984e-14, -9.155542171880501e-15, -1.9021000996823789e-28, 1.2944739979816429e-14, 9.155542173856621e-15, -2.8774616036493406e-28, -1.2944739979436346e-14, -2.058301981290563e-14, -2.238844094541228e-28, 1.0537405951746112e-14, 2.0583019808399007e-14, -5.019664063523398e-28, -1.0537405949914663e-14, 2.0583019812788077e-14, 4.36111790036474e-28, 1.053740594984374e-14, -2.0583019811947417e-14, 7.03903790812533e-29, -1.0537405950125782e-14, -0.13120806334198343, 1.2944739979541217e-14, 53.199281229900215, 0.13120806325119727, 1.9749697124369477e-14, 16.800718770233882, 0.1312080631619183, 8.595602335430109e-15, -16.800718770085915, -0.13120806336901603, -1.796057472604295e-14, 16.800718770036635, -0.15523514063110544, -1.690742290183184e-14, 0.577007550860553, 0.15523514090806179, -1.435113063580939e-14, -0.5770075509845333, 0.15523514075287537, 1.5343378720635388e-14, 0.5770075510300194, -0.15523514065197364, -7.96597911745159e-15, -0.5770075509789427, 16.365737638824548, -9.155542174775461e-15, 0.13120806325119727, 53.63426236130088, -5.8181838578783644e-15, -0.1312080634303241, -16.365737638555817, 9.284825328806131e-16, 0.13120806322217649, 16.365737638867817, 1.3816644187174757e-14, -0.13120806315933814, 0.6665239897777485, 8.04171077406356e-15, -0.011848508294980686, -0.6665239900945317, 7.971313146048359e-15, 0.011848508472434488, -0.66652398992658, -1.6346637458289504e-14, -0.011848508500816035, 0.6665239898320853, 1.270257309188838e-15, 0.011848508462521501, 5.818183855276757e-15, 8.316242189160441e-29, 1.9749697124369477e-14, -5.8181838578783644e-15, 70.0, -1.974969711924818e-14, -5.818183860727368e-15, 1.097632248009101e-27, 1.9749697123565637e-14, 5.818183852451303e-15, -1.0458550269036211e-27, -1.9749697125144385e-14, 1.1997355837348598e-14, -1.0125514629006586e-27, 1.4674865790201606e-14, -1.199735582779854e-14, -3.2326602426156955e-28, -1.467486579522435e-14, -1.1997355830299741e-14, 5.919834403238375e-28, 1.4674865794884613e-14, 1.1997355833260146e-14, -8.57176491584185e-28, -1.467486579389734e-14, 0.13120806352110892, -1.2944739981739984e-14, 16.800718770233882, -0.1312080634303241, -1.974969711924818e-14, 53.19928122963202, -0.13120806334104412, -8.595602335103397e-15, 16.800718770219994, 0.13120806354814202, 1.7960574723088785e-14, -16.800718770170715, 0.15523514048097048, 1.6907422898245912e-14, -0.5770075506227934, -0.1552351407579246, 1.4351130637528276e-14, 0.5770075507467746, -0.15523514060273996, -1.5343378719294757e-14, -0.5770075507922592, 0.15523514050183956, 7.965979117758932e-15, 0.5770075507411836, 16.36573763868124, -9.155542171880501e-15, 0.1312080631619183, -16.365737638555817, -5.818183860727368e-15, -0.13120806334104412, 53.63426236158748, 9.284825342299392e-16, 0.131208063132897, 16.365737638724507, 1.3816644188009816e-14, -0.13120806307006, 0.6665239899589768, 8.041710776370376e-15, -0.011848508489638282, -0.6665239902757596, 7.971313143121456e-15, 0.011848508667092389, -0.6665239901078096, -1.6346637458482608e-14, -0.011848508695474491, 0.6665239900133146, 1.2702573077428906e-15, 0.011848508657181123, -9.28482530917465e-16, -1.9021000996823789e-28, 8.595602335430109e-15, 9.284825328806131e-16, 1.097632248009101e-27, -8.595602335103397e-15, 9.284825342299392e-16, 70.0, 8.59560233414513e-15, -9.28482534986837e-16, -6.011873014294391e-28, -8.595602333519483e-15, 2.0369426693637785e-14, -6.597637991426083e-28, 2.7208623498654655e-15, -2.036942669156703e-14, -3.5768602631638726e-29, -2.7208623504480187e-15, -2.036942669121876e-14, 1.5972443397953977e-28, 2.7208623489929916e-15, 2.036942668960702e-14, -7.427424356064374e-28, -2.7208623493457813e-15, -0.1312080633129607, 1.2944739979816429e-14, -16.800718770085915, 0.13120806322217649, 1.9749697123565637e-14, 16.800718770219994, 0.131208063132897, 8.59560233414513e-15, 53.19928122992798, -0.13120806333999313, -1.796057472564633e-14, 16.80071877002274, -0.15523514060904559, -1.6907422901371155e-14, 0.5770075509134833, 0.15523514088600243, -1.435113063575392e-14, -0.5770075510374626, 0.15523514073081668, 1.5343378720605667e-14, 0.5770075510829484, -0.15523514062991578, -7.965979116531512e-15, -0.5770075510318708, -16.36573763899324, 9.155542173856621e-15, -0.13120806336901603, 16.365737638867817, 5.818183852451303e-15, 0.13120806354814202, 16.365737638724507, -9.28482534986837e-16, -0.13120806333999313, 53.6342623609635, -1.3816644184031383e-14, 0.13120806327715612, -0.6665239896911836, -8.04171077082109e-15, 0.011848508083973808, 0.6665239900079667, -7.971313144393282e-15, -0.011848508261428858, 0.6665239898400144, 1.634663745741393e-14, 0.01184850828981071, -0.6665239897455215, -1.27025730799072e-15, -0.011848508251517231, -1.3816644185469401e-14, -2.8774616036493406e-28, -1.796057472604295e-14, 1.3816644187174757e-14, -1.0458550269036211e-27, 1.7960574723088785e-14, 1.3816644188009816e-14, -6.011873014294391e-28, -1.796057472564633e-14, -1.3816644184031383e-14, 70.0, 1.7960574726600952e-14, 4.087733123673232e-15, 8.184421505037186e-28, -1.774242457969974e-14, -4.087733128632118e-15, 4.1216635338470365e-28, 1.7742424582497894e-14, -4.087733128308525e-15, -7.343769440215567e-28, -1.7742424581952984e-14, 4.0877331261733e-15, 5.047327440520082e-28, 1.774242458144205e-14, 0.13120806325012369, -1.2944739979436346e-14, 16.800718770036635, -0.13120806315933814, -1.9749697125144385e-14, -16.800718770170715, -0.13120806307006, -8.595602333519483e-15, 16.80071877002274, 0.13120806327715612, 1.7960574726600952e-14, 53.19928123002656, 0.15523514066931204, 1.6907422902441784e-14, -0.5770075510005792, -0.1552351409462684, 1.4351130635397333e-14, 0.5770075511245604, -0.15523514079108136, -1.5343378721026196e-14, -0.5770075511700445, 0.15523514069017896, 7.965979115832687e-15, 0.5770075511189685, -0.6665239897255351, -2.058301981290563e-14, -0.15523514063110544, 0.6665239897777485, 1.1997355837348598e-14, 0.15523514048097048, 0.6665239899589768, 2.0369426693637785e-14, -0.15523514060904559, -0.6665239896911836, 4.087733123673232e-15, 0.15523514066931204, 53.57218674872911, -1.0303061667029904e-15, -0.265358354091839, 16.42781325100568, 1.4699821865407323e-14, 0.265358354215061, 16.427813251095515, -1.5445887094175343e-14, -0.265358354269198, -16.427813251211063, -1.2740470242865832e-14, 0.2653583542245917, -8.041710772617747e-15, -2.238844094541228e-28, -1.690742290183184e-14, 8.04171077406356e-15, -1.0125514629006586e-27, 1.6907422898245912e-14, 8.041710776370376e-15, -6.597637991426083e-28, -1.6907422901371155e-14, -8.04171077082109e-15, 8.184421505037186e-28, 1.6907422902441784e-14, -1.0303061667029904e-15, 70.0, -1.4005021880416634e-14, 1.0303061601029652e-15, 3.5899257388725456e-28, 1.4005021883953719e-14, 1.030306162173733e-15, -5.666397497511338e-28, -1.4005021883762188e-14, -1.0303061640537044e-15, 5.386834341180586e-28, 1.4005021883088234e-14, 0.01184850811368704, 1.0537405951746112e-14, 0.577007550860553, -0.011848508294980686, 1.4674865790201606e-14, -0.5770075506227934, -0.011848508489638282, 2.7208623498654655e-15, 0.5770075509134833, 0.011848508083973808, -1.774242457969974e-14, -0.5770075510005792, -0.265358354091839, -1.4005021880416634e-14, 53.1332972607486, 0.2653583545171496, -1.1202494946247278e-14, 16.86670273899351, 0.2653583543098612, 1.743628312926377e-14, -16.866702738961955, -0.2653583541548496, -3.2316025098753768e-15, 16.86670273900895, 0.6665239900423175, 2.0583019808399007e-14, 0.15523514090806179, -0.6665239900945317, -1.199735582779854e-14, -0.1552351407579246, -0.6665239902757596, -2.036942669156703e-14, 0.15523514088600243, 0.6665239900079667, -4.087733128632118e-15, -0.1552351409462684, 16.42781325100568, 1.0303061601029652e-15, 0.2653583545171496, 53.57218674925952, -1.4699821861959966e-14, -0.2653583546403743, -16.427813250830305, 1.544588709597047e-14, 0.26535835469450947, 16.427813250945853, 1.2740470242232917e-14, -0.2653583546499043, -7.971313145502106e-15, -5.019664063523398e-28, -1.435113063580939e-14, 7.971313146048359e-15, -3.2326602426156955e-28, 1.4351130637528276e-14, 7.971313143121456e-15, -3.5768602631638726e-29, -1.435113063575392e-14, -7.971313144393282e-15, 4.1216635338470365e-28, 1.4351130635397333e-14, 1.4699821865407323e-14, 3.5899257388725456e-28, -1.1202494946247278e-14, -1.4699821861959966e-14, 70.0, 1.1202494944910125e-14, -1.4699821866275755e-14, -4.547250770376521e-28, -1.1202494944494905e-14, 1.4699821865478958e-14, 9.24106453597693e-29, 1.1202494944758555e-14, -0.011848508291143561, -1.0537405949914663e-14, -0.5770075509845333, 0.011848508472434488, -1.467486579522435e-14, 0.5770075507467746, 0.011848508667092389, -2.7208623504480187e-15, -0.5770075510374626, -0.011848508261428858, 1.7742424582497894e-14, 0.5770075511245604, 0.265358354215061, 1.4005021883953719e-14, 16.86670273899351, -0.2653583546403743, 1.1202494944910125e-14, 53.13329726126436, -0.2653583544330852, -1.743628313047447e-14, 16.866702738704067, 0.2653583542780732, 3.231602509800237e-15, -16.866702738751055, 0.6665239898743665, 2.0583019812788077e-14, 0.15523514075287537, -0.66652398992658, -1.1997355830299741e-14, -0.15523514060273996, -0.6665239901078096, -2.036942669121876e-14, 0.15523514073081668, 0.6665239898400144, -4.087733128308525e-15, -0.15523514079108136, 16.427813251095515, 1.030306162173733e-15, 0.2653583543098612, -16.427813250830305, -1.4699821866275755e-14, -0.2653583544330852, 53.57218674907986, 1.544588709619508e-14, 0.2653583544872228, 16.427813251035687, 1.2740470241626062e-14, -0.26535835444261513, 1.634663745770992e-14, 4.36111790036474e-28, 1.5343378720635388e-14, -1.6346637458289504e-14, 5.919834403238375e-28, -1.5343378719294757e-14, -1.6346637458482608e-14, 1.5972443397953977e-28, 1.5343378720605667e-14, 1.634663745741393e-14, -7.343769440215567e-28, -1.5343378721026196e-14, -1.5445887094175343e-14, -5.666397497511338e-28, 1.743628312926377e-14, 1.544588709597047e-14, -4.547250770376521e-28, -1.743628313047447e-14, 1.544588709619508e-14, 70.0, 1.7436283130079247e-14, -1.5445887095145008e-14, -1.8454200720772496e-28, -1.7436283129899822e-14, 0.011848508319525886, 1.053740594984374e-14, 0.5770075510300194, -0.011848508500816035, 1.4674865794884613e-14, -0.5770075507922592, -0.011848508695474491, 2.7208623489929916e-15, 0.5770075510829484, 0.01184850828981071, -1.7742424581952984e-14, -0.5770075511700445, -0.265358354269198, -1.4005021883762188e-14, -16.866702738961955, 0.26535835469450947, -1.1202494944494905e-14, 16.866702738704067, 0.2653583544872228, 1.7436283130079247e-14, 53.13329726132749, -0.26535835433220856, -3.2316025086835957e-15, 16.8667027387195, -0.6665239897798729, -2.0583019811947417e-14, -0.15523514065197364, 0.6665239898320853, 1.1997355833260146e-14, 0.15523514050183956, 0.6665239900133146, 2.036942668960702e-14, -0.15523514062991578, -0.6665239897455215, 4.0877331261733e-15, 0.15523514069017896, -16.427813251211063, -1.0303061640537044e-15, -0.2653583541548496, 16.427813250945853, 1.4699821865478958e-14, 0.2653583542780732, 16.427813251035687, -1.5445887095145008e-14, -0.26535835433220856, 53.57218674884876, -1.2740470239997427e-14, 0.2653583542876021, -1.2702573110473161e-15, 7.03903790812533e-29, -7.96597911745159e-15, 1.270257309188838e-15, -8.57176491584185e-28, 7.965979117758932e-15, 1.2702573077428906e-15, -7.427424356064374e-28, -7.965979116531512e-15, -1.27025730799072e-15, 5.047327440520082e-28, 7.965979115832687e-15, -1.2740470242865832e-14, 5.386834341180586e-28, -3.2316025098753768e-15, 1.2740470242232917e-14, 9.24106453597693e-29, 3.231602509800237e-15, 1.2740470241626062e-14, -1.8454200720772496e-28, -3.2316025086835957e-15, -1.2740470239997427e-14, 70.0, 3.2316025090877197e-15, -0.011848508281231518, -1.0537405950125782e-14, -0.5770075509789427, 0.011848508462521501, -1.467486579389734e-14, 0.5770075507411836, 0.011848508657181123, -2.7208623493457813e-15, -0.5770075510318708, -0.011848508251517231, 1.774242458144205e-14, 0.5770075511189685, 0.2653583542245917, 1.4005021883088234e-14, 16.86670273900895, -0.2653583546499043, 1.1202494944758555e-14, -16.866702738751055, -0.26535835444261513, -1.7436283129899822e-14, 16.8667027387195, 0.2653583542876021, 3.2316025090877197e-15, 53.133297261233515]]}, {"__ndarray__": [[24], "float64", [10.113507192327349, 3.1993199167612496, 0.14328797052494216, 1.6838158452795016, 1.06643997225375, 4.323576594150677, 7.582477364082853, 1.06643997225375, 2.3767202528627354, 4.214845673523886, 3.1993199167612496, 2.0901443118127454, 1.4619902038330888, 3.1993199167612496, 1.7256561354861837, 10.335332833773982, 1.06643997225375, 2.741208429189207, 4.436671314970481, 1.06643997225375, 3.9590884178240633, 7.360651722636508, 3.1993199167612496, 0.5077761468514529]]}, {"__ndarray__": [[24], "float64", [0.0006200719191936154, 1.0873559815105542e-15, 0.0005139961007729991, -0.0006200719187520408, -1.0314357268040101e-15, -0.0005139961014754631, -0.0006200719181137244, -1.0160226725323938e-15, 0.000513996100690276, 0.000620071919281766, 1.2143275622424829e-15, -0.0005139961004471759, -0.0006076735292925607, 6.828440391449906e-16, 0.0007953539937663756, 0.0006076735280911008, -7.371959414027345e-16, -0.0007953539931180233, 0.0006076735286701168, -8.666860935763171e-16, 0.0007953539929291776, -0.0006076735290782738, 6.700461030324281e-16, -0.0007953539931181736]]}, 0.2]