[{"__ndarray__": [[24, 24], "float64", [53.86082959003085, 1.8356738555999955e-14, -0.19357325984075288, 16.139170409766567, 3.573157024614153e-14, 0.19357325992721175, 16.1391704100129, -2.2712573143031876e-14, -0.19357325984667048, -16.139170410195828, -1.8785284574303845e-14, 0.19357325982950466, -0.6958154985399877, -3.058228326567747e-14, -0.06945736658360899, 0.6958154987981449, -1.048555351538779e-14, 0.06945736648740466, 0.6958154989680796, 9.975078295125407e-15, -0.0694573665007408, -0.6958154987730024, 1.6971841858647178e-14, 0.06945736651946746, 1.8356738555999955e-14, 70.0, 1.295159744572318e-14, -1.8356738544191856e-14, 1.0814570488574706e-27, -1.2951597451979082e-14, -1.8356738557243358e-14, -8.328782282382913e-28, 1.2951597447446813e-14, 1.8356738574260425e-14, -6.798260707240435e-28, -1.295159744613021e-14, -2.5456792941277626e-14, -9.947314319939412e-28, 7.282462251809191e-15, 2.5456792923565187e-14, -6.543737559000596e-28, -7.282462244626142e-15, 2.5456792911299485e-14, 4.724374297773933e-28, 7.282462246136312e-15, -2.545679292335617e-14, 5.732222847164844e-28, -7.282462247073555e-15, -0.19357325984075288, 1.295159744572318e-14, 53.324567202785396, 0.19357325978804568, -1.1412516973079175e-14, 16.675432797251794, 0.19357325979252848, -7.308702745898345e-15, -16.675432797218587, -0.19357325986615345, -3.1006623198802507e-15, 16.675432797221795, -0.20752345404255143, 1.069990682392135e-14, 0.6605688542302437, 0.2075234540970551, -1.2270913430295533e-14, -0.6605688542532784, 0.20752345412162257, 3.9091682185403445e-15, 0.6605688542430251, -0.20752345407945585, 6.136388997725419e-15, -0.6605688542425819, 16.139170409766567, -1.8356738544191856e-14, 0.19357325978804568, 53.860829590436026, -3.5731570235332503e-14, -0.1935732598745058, -16.139170409810315, 2.2712573154937942e-14, 0.19357325979396384, 16.139170409993245, 1.8785284568926045e-14, -0.19357325977679843, 0.6958154990874548, 3.058228325470669e-14, 0.06945736667134217, -0.6958154993456146, 1.0485553506774406e-14, -0.06945736657513835, -0.6958154995155484, -9.975078291231688e-15, 0.06945736658847457, 0.695815499320471, -1.69718418723515e-14, -0.06945736660719934, 3.573157024614153e-14, 1.0814570488574706e-27, -1.1412516973079175e-14, -3.5731570235332503e-14, 70.0, 1.1412516968966663e-14, -3.5731570245617584e-14, -2.3475477325386486e-27, -1.1412516973011948e-14, 3.5731570252749113e-14, -1.3279845727418417e-27, 1.1412516973641939e-14, -6.86526232862899e-14, -5.351492736047567e-27, 4.639798347739989e-15, 6.865262327680284e-14, -6.542603553011796e-29, -4.639798344558317e-15, 6.865262326888139e-14, 1.3035215322801914e-28, 4.639798345152913e-15, -6.865262327762744e-14, 1.5983763410569305e-27, -4.6397983457578655e-15, 0.19357325992721175, -1.2951597451979082e-14, 16.675432797251794, -0.1935732598745058, 1.1412516968966663e-14, 53.32456720271102, -0.19357325987898752, 7.308702743192407e-15, 16.675432797255773, 0.19357325995261343, 3.1006623236065945e-15, -16.675432797258978, 0.2075234538374527, -1.0699906819681121e-14, -0.6605688542420264, -0.20752345389195814, 1.2270913434998152e-14, 0.6605688542650632, -0.2075234539165271, -3.909168221771155e-15, -0.6605688542548093, 0.20752345387435656, -6.1363889940038396e-15, 0.6605688542543652, 16.1391704100129, -1.8356738557243358e-14, 0.19357325979252848, -16.139170409810315, -3.5731570245617584e-14, -0.19357325987898752, 53.86082958994335, 2.2712573148420786e-14, 0.19357325979844647, 16.13917041023958, 1.8785284574924634e-14, -0.1935732597812818, 0.6958154986435514, 3.058228326505582e-14, 0.069457366671902, -0.6958154989017098, 1.0485553516077222e-14, -0.06945736657569943, -0.6958154990716436, -9.975078295795925e-15, 0.06945736658903456, 0.6958154988765668, -1.697184186329125e-14, -0.06945736660776161, -2.2712573143031876e-14, -8.328782282382913e-28, -7.308702745898345e-15, 2.2712573154937942e-14, -2.3475477325386486e-27, 7.308702743192407e-15, 2.2712573148420786e-14, 70.0, -7.308702746400774e-15, -2.2712573144526704e-14, 7.412955744027746e-28, 7.308702746372426e-15, 3.50848877006513e-14, 2.0511707789820946e-27, -1.044615552200093e-14, -3.5084887701664075e-14, 3.7009164299739105e-28, 1.0446155525650573e-14, -3.5084887708269567e-14, -2.5183012812348887e-28, -1.0446155523454231e-14, 3.5084887702839856e-14, -8.345121410655628e-28, 1.0446155523914243e-14, -0.19357325984667048, 1.2951597447446813e-14, -16.675432797218587, 0.19357325979396384, -1.1412516973011948e-14, 16.675432797255773, 0.19357325979844647, -7.308702746400774e-15, 53.32456720277743, -0.19357325987207155, -3.100662320852809e-15, 16.675432797225778, -0.2075234540215767, 1.069990682380831e-14, 0.6605688542371617, 0.20752345407608283, -1.2270913431778847e-14, -0.6605688542601981, 0.2075234541006482, 3.909168219488542e-15, 0.6605688542499437, -0.20752345405847977, 6.1363889980418434e-15, -0.6605688542494997, -16.139170410195828, 1.8356738574260425e-14, -0.19357325986615345, 16.139170409993245, 3.5731570252749113e-14, 0.19357325995261343, 16.13917041023958, -2.2712573144526704e-14, -0.19357325987207155, 53.8608295895775, -1.8785284585041444e-14, 0.19357325985490656, -0.6958154981847509, -3.058228327269323e-14, -0.0694573666478106, 0.6958154984429087, -1.048555352938795e-14, 0.06945736655160675, 0.6958154986128433, 9.97507830499746e-15, -0.0694573665649445, -0.695815498417766, 1.6971841856894837e-14, 0.06945736658366919, -1.8785284574303845e-14, -6.798260707240435e-28, -3.1006623198802507e-15, 1.8785284568926045e-14, -1.3279845727418417e-27, 3.1006623236065945e-15, 1.8785284574924634e-14, 7.412955744027746e-28, -3.100662320852809e-15, -1.8785284585041444e-14, 70.0, 3.1006623201669006e-15, 2.2439605589651185e-14, 1.190987302246065e-27, -2.1777286273888927e-15, -2.2439605579217376e-14, 3.7792227830782293e-28, 2.1777286227421265e-15, -2.24396055743477e-14, -3.0475588680481194e-28, -2.1777286238493054e-15, 2.2439605579718618e-14, -5.089801893921082e-28, 2.1777286245398017e-15, 0.19357325982950466, -1.295159744613021e-14, 16.675432797221795, -0.19357325977679843, 1.1412516973641939e-14, -16.675432797258978, -0.1935732597812818, 7.308702746372426e-15, 16.675432797225778, 0.19357325985490656, 3.1006623201669006e-15, 53.32456720277102, 0.20752345404080316, -1.0699906824416325e-14, -0.6605688542434668, -0.2075234540953084, 1.2270913430756015e-14, 0.6605688542665038, -0.20752345411987688, -3.9091682189331294e-15, -0.6605688542562493, 0.20752345407770725, -6.136388998229183e-15, 0.6605688542558061, -0.6958154985399877, -2.5456792941277626e-14, -0.20752345404255143, 0.6958154990874548, -6.86526232862899e-14, 0.2075234538374527, 0.6958154986435514, 3.50848877006513e-14, -0.2075234540215767, -0.6958154981847509, 2.2439605589651185e-14, 0.20752345404080316, 53.539533167138075, 6.014999099301675e-14, -0.28496364583931855, 16.46046683227703, 1.1711134630326589e-14, 0.2849636460602021, 16.460466831977804, -8.226680773306182e-15, -0.284963645994496, -16.46046683234421, -2.459229802646279e-14, 0.28496364598105467, -3.058228326567747e-14, -9.947314319939412e-28, 1.069990682392135e-14, 3.058228325470669e-14, -5.351492736047567e-27, -1.0699906819681121e-14, 3.058228326505582e-14, 2.0511707789820946e-27, 1.069990682380831e-14, -3.058228327269323e-14, 1.190987302246065e-27, -1.0699906824416325e-14, 6.014999099301675e-14, 70.0, -2.1225363590481027e-15, -6.01499909830549e-14, 9.442107899481261e-29, 2.122536355596123e-15, -6.014999097506542e-14, -1.5747822633164827e-28, -2.1225363562845715e-15, 6.014999098389909e-14, -1.3862155850298049e-27, 2.1225363568855036e-15, -0.06945736658360899, 7.282462251809191e-15, 0.6605688542302437, 0.06945736667134217, 4.639798347739989e-15, -0.6605688542420264, 0.069457366671902, -1.044615552200093e-14, 0.6605688542371617, -0.0694573666478106, -2.1777286273888927e-15, -0.6605688542434668, -0.28496364583931855, -2.1225363590481027e-15, 53.17684624755132, 0.2849636458035183, -5.593775839391621e-15, 16.823153752455337, 0.28496364583676925, -1.0142889149474922e-15, -16.82315375242683, -0.28496364581642797, 8.790879083385789e-15, 16.82315375244643, 0.6958154987981449, 2.5456792923565187e-14, 0.2075234540970551, -0.6958154993456146, 6.865262327680284e-14, -0.20752345389195814, -0.6958154989017098, -3.5084887701664075e-14, 0.20752345407608283, 0.6958154984429087, -2.2439605579217376e-14, -0.2075234540953084, 16.46046683227703, -6.01499909830549e-14, 0.2849636458035183, 53.53953316830789, -1.1711134617197053e-14, -0.2849636460243999, -16.460466831392896, 8.226680763815163e-15, 0.2849636459586944, 16.4604668317593, 2.459229803085044e-14, -0.28496364594525336, -1.048555351538779e-14, -6.543737559000596e-28, -1.2270913430295533e-14, 1.0485553506774406e-14, -6.542603553011796e-29, 1.2270913434998152e-14, 1.0485553516077222e-14, 3.7009164299739105e-28, -1.2270913431778847e-14, -1.048555352938795e-14, 3.7792227830782293e-28, 1.2270913430756015e-14, 1.1711134630326589e-14, 9.442107899481261e-29, -5.593775839391621e-15, -1.1711134617197053e-14, 70.0, 5.5937758337605645e-15, -1.171113460796805e-14, -3.66804406466191e-28, -5.59377583507759e-15, 1.1711134616964888e-14, -2.5845150592679883e-28, 5.593775835727422e-15, 0.06945736648740466, -7.282462244626142e-15, -0.6605688542532784, -0.06945736657513835, -4.639798344558317e-15, 0.6605688542650632, -0.06945736657569943, 1.0446155525650573e-14, -0.6605688542601981, 0.06945736655160675, 2.1777286227421265e-15, 0.6605688542665038, 0.2849636460602021, 2.122536355596123e-15, 16.823153752455337, -0.2849636460243999, 5.5937758337605645e-15, 53.17684624753804, -0.28496364605765157, 1.0142889191165637e-15, 16.823153752433456, 0.28496364603731106, -8.790879087949292e-15, -16.823153752453067, 0.6958154989680796, 2.5456792911299485e-14, 0.20752345412162257, -0.6958154995155484, 6.865262326888139e-14, -0.2075234539165271, -0.6958154990716436, -3.5084887708269567e-14, 0.2075234541006482, 0.6958154986128433, -2.24396055743477e-14, -0.20752345411987688, 16.460466831977804, -6.014999097506542e-14, 0.28496364583676925, -16.460466831392896, -1.171113460796805e-14, -0.28496364605765157, 53.53953316890633, 8.226680760225783e-15, 0.2849636459919449, 16.46046683146007, 2.4592298039432237e-14, -0.2849636459785044, 9.975078295125407e-15, 4.724374297773933e-28, 3.9091682185403445e-15, -9.975078291231688e-15, 1.3035215322801914e-28, -3.909168221771155e-15, -9.975078295795925e-15, -2.5183012812348887e-28, 3.909168219488542e-15, 9.97507830499746e-15, -3.0475588680481194e-28, -3.9091682189331294e-15, -8.226680773306182e-15, -1.5747822633164827e-28, -1.0142889149474922e-15, 8.226680763815163e-15, -3.66804406466191e-28, 1.0142889191165637e-15, 8.226680760225783e-15, 70.0, -1.0142889180934616e-15, -8.226680764483587e-15, 1.641192394904412e-28, 1.0142889175001278e-15, -0.0694573665007408, 7.282462246136312e-15, 0.6605688542430251, 0.06945736658847457, 4.639798345152913e-15, -0.6605688542548093, 0.06945736658903456, -1.0446155523454231e-14, 0.6605688542499437, -0.0694573665649445, -2.1777286238493054e-15, -0.6605688542562493, -0.284963645994496, -2.1225363562845715e-15, -16.82315375242683, 0.2849636459586944, -5.59377583507759e-15, 16.823153752433456, 0.2849636459919449, -1.0142889180934616e-15, 53.17684624759506, -0.28496364597160306, 8.79087908571614e-15, 16.823153752424552, -0.6958154987730024, -2.545679292335617e-14, -0.20752345407945585, 0.695815499320471, -6.865262327762744e-14, 0.20752345387435656, 0.6958154988765668, 3.5084887702839856e-14, -0.20752345405847977, -0.695815498417766, 2.2439605579718618e-14, 0.20752345407770725, -16.46046683234421, 6.014999098389909e-14, -0.28496364581642797, 16.4604668317593, 1.1711134616964888e-14, 0.28496364603731106, 16.46046683146007, -8.226680764483587e-15, -0.28496364597160306, 53.53953316817353, -2.45922980319287e-14, 0.28496364595816415, 1.6971841858647178e-14, 5.732222847164844e-28, 6.136388997725419e-15, -1.69718418723515e-14, 1.5983763410569305e-27, -6.1363889940038396e-15, -1.697184186329125e-14, -8.345121410655628e-28, 6.1363889980418434e-15, 1.6971841856894837e-14, -5.089801893921082e-28, -6.136388998229183e-15, -2.459229802646279e-14, -1.3862155850298049e-27, 8.790879083385789e-15, 2.459229803085044e-14, -2.5845150592679883e-28, -8.790879087949292e-15, 2.4592298039432237e-14, 1.641192394904412e-28, 8.79087908571614e-15, -2.45922980319287e-14, 70.0, -8.790879085960935e-15, 0.06945736651946746, -7.282462247073555e-15, -0.6605688542425819, -0.06945736660719934, -4.6397983457578655e-15, 0.6605688542543652, -0.06945736660776161, 1.0446155523914243e-14, -0.6605688542494997, 0.06945736658366919, 2.1777286245398017e-15, 0.6605688542558061, 0.28496364598105467, 2.1225363568855036e-15, 16.82315375244643, -0.28496364594525336, 5.593775835727422e-15, -16.823153752453067, -0.2849636459785044, 1.0142889175001278e-15, 16.823153752424552, 0.28496364595816415, -8.790879085960935e-15, 53.176846247555844]]}, {"__ndarray__": [[24], "float64", [10.042786667887349, 3.1742272115317496, 0.14998367770232476, 1.6620083458953763, 1.05807573717725, 4.2818466550933225, 7.5144058527865845, 1.05807573717725, 2.3658988441001902, 4.190389160996102, 3.1742272115317496, 2.0659314886955196, 1.4328661048756297, 3.1742272115317496, 1.7310456094611781, 10.271928908906782, 1.05807573717725, 2.7007847233345847, 4.419531402015465, 1.05807573717725, 3.946960775859023, 7.285263611767017, 3.1742272115317496, 0.48486955693670425]]}, {"__ndarray__": [[24], "float64", [-0.0004517906121598162, -1.4177652329571923e-16, -8.190970054797989e-05, 0.00045179061131275604, 3.9274882801068674e-16, 8.190970091401424e-05, 0.00045179061202487906, 1.2033411815979732e-16, -8.190970059599432e-05, -0.00045179061284389844, -5.326434593617554e-17, 8.190970056996133e-05, 0.000934715751741616, -2.997255993729005e-16, -1.6146813203329522e-05, -0.0009347157507549183, 9.524267901174743e-17, 1.614681282981927e-05, -0.0009347157502021465, -4.896974354204977e-17, -1.614681293300572e-05, 0.0009347157508815289, -6.557357415383254e-17, 1.614681296651418e-05]]}, 0.2]