[{"__ndarray__": [[24, 24], "float64", [53.92452557186049, -5.498377403237966e-15, -0.1513915846385439, 16.075474428143746, 4.1135365425655035e-15, 0.15139158463472033, 16.07547442866739, 3.605450852421424e-14, -0.15139158462394292, -16.075474428433026, 3.736654974359496e-14, 0.15139158462798324, -0.7099002764909565, -9.729942194763892e-15, 0.02784402719735103, 0.709900276266525, 3.1147013527290553e-15, -0.02784402719331565, 0.7099002767769936, -3.6652019148368804e-14, 0.02784402719988284, -0.7099002767752952, -2.847813135947589e-14, -0.02784402719487264, -5.498377403237966e-15, 70.0, 7.661134825433372e-16, 5.498377403490461e-15, -1.734555227036291e-28, -7.661134825093944e-16, 5.498377400879855e-15, -1.1811047119974021e-27, 7.661134825664035e-16, -5.498377402179437e-15, -1.4631308692990031e-27, -7.661134825708881e-16, 1.2938386119136014e-14, 3.490858481795078e-28, -3.9614151193517745e-16, -1.293838611777397e-14, -1.3063094886722705e-28, 3.961415119747988e-16, -1.2938386120447879e-14, 1.390116897370458e-27, -3.9614151196982186e-16, 1.2938386120347839e-14, 9.70802752667459e-28, 3.961415119376896e-16, -0.1513915846385439, 7.661134825433372e-16, 53.33557100164464, 0.15139158462673036, 4.314610135060296e-15, 16.66442899835031, 0.15139158481437293, 1.148339353025769e-14, -16.664428998349177, -0.15139158472652658, 1.486007100150516e-14, 16.664428998351575, -0.11497345804999687, -6.740540831417853e-15, 0.6956501045609363, 0.1149734579617041, -1.7255153298230657e-15, -0.6956501045550009, 0.11497345813590878, -1.378741187076374e-14, 0.6956501045565355, -0.1149734581290757, -9.239285432064232e-15, -0.6956501045566518, 16.075474428143746, 5.498377403490461e-15, 0.15139158462673036, 53.92452557185201, -4.1135365427859025e-15, -0.1513915846229073, -16.07547442867163, -3.605450852421926e-14, 0.15139158461213098, 16.07547442843727, -3.7366549743223187e-14, -0.15139158461616936, 0.709900276499343, 9.72994219485402e-15, -0.027844027213192582, -0.7099002762749127, -3.1147013529273386e-15, 0.027844027209156783, -0.7099002767853801, 3.665201914806386e-14, -0.027844027215724723, 0.7099002767836815, 2.847813135949715e-14, 0.02784402721071337, 4.1135365425655035e-15, -1.734555227036291e-28, 4.314610135060296e-15, -4.1135365427859025e-15, 70.0, -4.3146101352375734e-15, -4.113536543765687e-15, 7.858777256721025e-28, 4.3146101350468434e-15, 4.113536543649623e-15, 7.783187028559035e-28, -4.314610135057569e-15, -1.4990896230209678e-14, -4.232654318232659e-28, 8.833133174804252e-15, 1.499089623079604e-14, 9.418781448300047e-29, -8.833133174760357e-15, 1.499089622936364e-14, -7.528249834362339e-28, 8.833133174771966e-15, -1.4990896229518175e-14, -6.40630434218074e-28, -8.833133174708344e-15, 0.15139158463472033, -7.661134825093944e-16, 16.66442899835031, -0.1513915846229073, -4.3146101352375734e-15, 53.33557100165473, -0.15139158481054843, -1.14833935300453e-14, 16.664428998344142, 0.1513915847227036, -1.4860071000845898e-14, -16.66442899834654, 0.11497345806793141, 6.7405408314748144e-15, -0.6956501045665271, -0.11497345797963848, 1.7255153298031853e-15, 0.695650104560592, -0.11497345815384297, 1.3787411870182447e-14, -0.6956501045621258, 0.11497345814701057, 9.23928543188588e-15, 0.6956501045622431, 16.07547442866739, 5.498377400879855e-15, 0.15139158481437293, -16.07547442867163, -4.113536543765687e-15, -0.15139158481054843, 53.924525570804704, -3.605450854448353e-14, 0.15139158479977183, 16.075474428960916, -3.736654977687576e-14, -0.1513915848038104, 0.7099002755114083, 9.729942201175582e-15, -0.027844027033606625, -0.7099002752869779, -3.1147013498309503e-15, 0.027844027029573407, -0.7099002757974469, 3.665201917860834e-14, -0.027844027036138516, 0.7099002757957475, 2.8478131376771755e-14, 0.027844027031130147, 3.605450852421424e-14, -1.1811047119974021e-27, 1.148339353025769e-14, -3.605450852421926e-14, 7.858777256721025e-28, -1.14833935300453e-14, -3.605450854448353e-14, 70.0, 1.1483393529295489e-14, 3.605450853617032e-14, 8.725999283887243e-27, -1.1483393529662697e-14, -6.930260740770084e-14, -1.8685838622150975e-27, 1.0397448723501697e-14, 6.930260741607126e-14, 6.610546835364076e-28, -1.0397448723607931e-14, 6.930260739593341e-14, -8.273530675152031e-27, 1.0397448723405242e-14, -6.930260739610242e-14, -5.6417719103376776e-27, -1.039744872333348e-14, -0.15139158462394292, 7.661134825664035e-16, -16.664428998349177, 0.15139158461213098, 4.3146101350468434e-15, 16.664428998344142, 0.15139158479977183, 1.1483393529295489e-14, 53.33557100165697, -0.1513915847119266, 1.4860070999937127e-14, 16.664428998345404, -0.11497345807428103, -6.740540831162319e-15, 0.6956501045694329, 0.11497345798598646, -1.7255153298038948e-15, -0.6956501045634963, 0.11497345816019292, -1.3787411869326566e-14, 0.695650104565031, -0.11497345815335969, -9.239285431265907e-15, -0.695650104565148, -16.075474428433026, -5.498377402179437e-15, -0.15139158472652658, 16.07547442843727, 4.113536543649623e-15, 0.1513915847227036, 16.075474428960916, 3.605450853617032e-14, -0.1513915847119266, 53.92452557127345, 3.736654976271948e-14, 0.15139158471596564, -0.7099002759645083, -9.729942198774996e-15, 0.027844027103590546, 0.7099002757400784, 3.1147013512800626e-15, -0.027844027099557925, 0.7099002762505465, -3.6652019165827596e-14, 0.027844027106122646, -0.7099002762488466, -2.8478131369634514e-14, -0.027844027101112764, 3.736654974359496e-14, -1.4631308692990031e-27, 1.486007100150516e-14, -3.7366549743223187e-14, 7.783187028559035e-28, -1.4860071000845898e-14, -3.736654977687576e-14, 8.725999283887243e-27, 1.4860070999937127e-14, 3.736654976271948e-14, 70.0, -1.4860071000448407e-14, -7.926960006630233e-14, -2.1880709690532066e-27, 7.756503264237169e-15, 7.926960007987975e-14, 8.186692150333255e-28, -7.756503264452957e-15, 7.92696000471654e-14, -1.0723180296497272e-26, 7.756503264095988e-15, -7.926960004727033e-14, -7.172874928482454e-27, -7.75650326413279e-15, 0.15139158462798324, -7.661134825708881e-16, 16.664428998351575, -0.15139158461616936, -4.314610135057569e-15, -16.66442899834654, -0.1513915848038104, -1.1483393529662697e-14, 16.664428998345404, 0.15139158471596564, -1.4860071000448407e-14, 53.33557100165219, 0.11497345806726592, 6.740540831253898e-15, -0.6956501045683626, -0.11497345797897243, 1.7255153298285416e-15, 0.6956501045624268, -0.1149734581531767, 1.3787411869785921e-14, -0.6956501045639611, 0.11497345814634446, 9.23928543157991e-15, 0.6956501045640777, -0.7099002764909565, 1.2938386119136014e-14, -0.11497345804999687, 0.709900276499343, -1.4990896230209678e-14, 0.11497345806793141, 0.7099002755114083, -6.930260740770084e-14, -0.11497345807428103, -0.7099002759645083, -7.926960006630233e-14, 0.11497345806726592, 53.49974246225192, 2.479582251130407e-14, -0.2951785369569542, 16.500257538192482, -7.21545640867576e-15, 0.2951785369559097, 16.500257537224964, 7.593909079985207e-14, -0.29517853696635266, -16.500257537223632, 5.645469837532368e-14, 0.2951785369586103, -9.729942194763892e-15, 3.490858481795078e-28, -6.740540831417853e-15, 9.72994219485402e-15, -4.232654318232659e-28, 6.7405408314748144e-15, 9.729942201175582e-15, -1.8685838622150975e-27, -6.740540831162319e-15, -9.729942198774996e-15, -2.1880709690532066e-27, 6.740540831253898e-15, 2.479582251130407e-14, 70.0, -1.0154979800462923e-14, -2.479582251406935e-14, -1.9113750207611266e-28, 1.0154979800448123e-14, -2.479582250745301e-14, 2.086809147373802e-27, -1.0154979800404628e-14, 2.479582250761466e-14, 1.5295375519003915e-27, 1.0154979800353923e-14, 0.02784402719735103, -3.9614151193517745e-16, 0.6956501045609363, -0.027844027213192582, 8.833133174804252e-15, -0.6956501045665271, -0.027844027033606625, 1.0397448723501697e-14, 0.6956501045694329, 0.027844027103590546, 7.756503264237169e-15, -0.6956501045683626, -0.2951785369569542, -1.0154979800462923e-14, 53.206838814271414, 0.2951785368763074, -8.488788210583347e-16, 16.793161185734455, 0.29517853704663133, -7.575597312562122e-15, -16.79316118573191, -0.29517853704162567, -8.169043013270266e-15, 16.79316118573132, 0.709900276266525, -1.293838611777397e-14, 0.1149734579617041, -0.7099002762749127, 1.499089623079604e-14, -0.11497345797963848, -0.7099002752869779, 6.930260741607126e-14, 0.11497345798598646, 0.7099002757400784, 7.926960007987975e-14, -0.11497345797897243, 16.500257538192482, -2.479582251406935e-14, 0.2951785368763074, 53.4997424613631, 7.21545640714318e-15, -0.2951785368752647, -16.500257537669373, -7.593909081209816e-14, 0.2951785368857037, 16.50025753766804, -5.645469838256094e-14, -0.2951785368779619, 3.1147013527290553e-15, -1.3063094886722705e-28, -1.7255153298230657e-15, -3.1147013529273386e-15, 9.418781448300047e-29, 1.7255153298031853e-15, -3.1147013498309503e-15, 6.610546835364076e-28, -1.7255153298038948e-15, 3.1147013512800626e-15, 8.186692150333255e-28, 1.7255153298285416e-15, -7.21545640867576e-15, -1.9113750207611266e-28, -8.488788210583347e-16, 7.21545640714318e-15, 70.0, 8.488788210257558e-16, 7.21545641032358e-15, -7.781402595446214e-28, -8.488788210222065e-16, -7.215456410212543e-15, -5.439139786975422e-28, 8.488788210406796e-16, -0.02784402719331565, 3.961415119747988e-16, -0.6956501045550009, 0.027844027209156783, -8.833133174760357e-15, 0.695650104560592, 0.027844027029573407, -1.0397448723607931e-14, -0.6956501045634963, -0.027844027099557925, -7.756503264452957e-15, 0.6956501045624268, 0.2951785369559097, 1.0154979800448123e-14, 16.793161185734455, -0.2951785368752647, 8.488788210257558e-16, 53.20683881425971, -0.2951785370455875, 7.575597312758779e-15, 16.79316118573775, 0.2951785370405848, 8.169043013359606e-15, -16.793161185737166, 0.7099002767769936, -1.2938386120447879e-14, 0.11497345813590878, -0.7099002767853801, 1.499089622936364e-14, -0.11497345815384297, -0.7099002757974469, 6.930260739593341e-14, 0.11497345816019292, 0.7099002762505465, 7.92696000471654e-14, -0.1149734581531767, 16.500257537224964, -2.479582250745301e-14, 0.29517853704663133, -16.500257537669373, 7.21545641032358e-15, -0.2951785370455875, 53.49974246329817, -7.593909078242125e-14, 0.29517853705602665, 16.50025753670052, -5.645469836534596e-14, -0.2951785370482878, -3.6652019148368804e-14, 1.390116897370458e-27, -1.378741187076374e-14, 3.665201914806386e-14, -7.528249834362339e-28, 1.3787411870182447e-14, 3.665201917860834e-14, -8.273530675152031e-27, -1.3787411869326566e-14, -3.6652019165827596e-14, -1.0723180296497272e-26, 1.3787411869785921e-14, 7.593909079985207e-14, 2.086809147373802e-27, -7.575597312562122e-15, -7.593909081209816e-14, -7.781402595446214e-28, 7.575597312758779e-15, -7.593909078242125e-14, 70.0, -7.575597312437378e-15, 7.593909078253759e-14, 6.799690479435918e-27, 7.57559731246206e-15, 0.02784402719988284, -3.9614151196982186e-16, 0.6956501045565355, -0.027844027215724723, 8.833133174771966e-15, -0.6956501045621258, -0.027844027036138516, 1.0397448723405242e-14, 0.695650104565031, 0.027844027106122646, 7.756503264095988e-15, -0.6956501045639611, -0.29517853696635266, -1.0154979800404628e-14, -16.79316118573191, 0.2951785368857037, -8.488788210222065e-16, 16.79316118573775, 0.29517853705602665, -7.575597312437378e-15, 53.20683881426479, -0.29517853705102315, -8.1690430131876e-15, 16.793161185734615, -0.7099002767752952, 1.2938386120347839e-14, -0.1149734581290757, 0.7099002767836815, -1.4990896229518175e-14, 0.11497345814701057, 0.7099002757957475, -6.930260739610242e-14, -0.11497345815335969, -0.7099002762488466, -7.926960004727033e-14, 0.11497345814634446, -16.500257537223632, 2.479582250761466e-14, -0.29517853704162567, 16.50025753766804, -7.215456410212543e-15, 0.2951785370405848, 16.50025753670052, 7.593909078253759e-14, -0.29517853705102315, 53.499742463300805, 5.6454698365480856e-14, 0.29517853704328245, -2.847813135947589e-14, 9.70802752667459e-28, -9.239285432064232e-15, 2.847813135949715e-14, -6.40630434218074e-28, 9.23928543188588e-15, 2.8478131376771755e-14, -5.6417719103376776e-27, -9.239285431265907e-15, -2.8478131369634514e-14, -7.172874928482454e-27, 9.23928543157991e-15, 5.645469837532368e-14, 1.5295375519003915e-27, -8.169043013270266e-15, -5.645469838256094e-14, -5.439139786975422e-28, 8.169043013359606e-15, -5.645469836534596e-14, 6.799690479435918e-27, -8.1690430131876e-15, 5.6454698365480856e-14, 70.0, 8.169043013127491e-15, -0.02784402719487264, 3.961415119376896e-16, -0.6956501045566518, 0.02784402721071337, -8.833133174708344e-15, 0.6956501045622431, 0.027844027031130147, -1.039744872333348e-14, -0.695650104565148, -0.027844027101112764, -7.75650326413279e-15, 0.6956501045640777, 0.2951785369586103, 1.0154979800353923e-14, 16.79316118573132, -0.2951785368779619, 8.488788210406796e-16, -16.793161185737166, -0.2951785370482878, 7.57559731246206e-15, 16.793161185734615, 0.29517853704328245, 8.169043013127491e-15, 53.20683881426595]]}, {"__ndarray__": [[24], "float64", [10.125972609290237, 3.1993199167612496, 0.1911484550577269, 1.671350428316656, 1.06643997225375, 4.275716109617783, 7.570011947119942, 1.06643997225375, 2.424580737395494, 4.227311090486851, 3.1993199167612496, 2.042283827280023, 1.474250746098174, 3.1993199167612496, 1.6816505177725076, 10.323072291508835, 1.06643997225375, 2.785214046903011, 4.424410772705207, 1.06643997225375, 3.915082800110267, 7.372912264901704, 3.1993199167612496, 0.5517817645652464]]}, {"__ndarray__": [[24], "float64", [-0.0001503916901625959, 1.022769909745011e-15, -2.1855323429328174e-05, 0.00015039169014959043, -1.0175028695669423e-15, 2.185532341740981e-05, 0.00015039169171317138, -9.773553163384258e-16, -2.185532339716472e-05, -0.00015039169097244158, 1.1994365092945117e-15, 2.1855323402406783e-05, 0.0003916827133977718, 7.366079707090425e-16, 0.00014909973027577613, -0.00039168271412403136, -7.831672925669594e-16, -0.00014909973027362746, -0.0003916827126209119, -9.154651064801543e-16, 0.00014909973027113428, 0.00039168271261944443, 7.339732668567062e-16, -0.0001490997302666031]]}, 0.2]