[{"__ndarray__": [[24, 24], "float64", [53.986601974456114, 6.523062291083056e-14, -0.20572604635377162, 16.013398027136525, 5.409877508760067e-14, 0.20572604652893473, 16.013398027530155, -4.50721321712217e-14, -0.20572604594988303, -16.013398027485483, 5.303747059259616e-14, 0.20572604569915437, -0.836679904043358, -3.767549000337736e-14, -0.06076749324287156, 0.8366799030144404, -4.711469459381322e-14, 0.06076749320602719, 0.836679904533262, -7.20284637396316e-14, -0.06076749273604136, -0.836679905367927, 2.848750447192173e-14, 0.060767492811612624, 6.523062291083056e-14, 70.0, 3.0171364118616792e-15, -6.523062293974968e-14, 6.3865309619140066e-27, -3.0171364062201184e-15, -6.523062296081525e-14, -1.767642890756169e-26, 3.017136390297207e-15, 6.523062296097905e-14, 1.289901993066234e-26, -3.017136394279339e-15, -9.765325209302267e-14, -3.863974656653351e-27, -1.072043030709768e-14, 9.76532520757029e-14, -1.0706146027536169e-26, 1.0720430306927491e-14, 9.765325206182052e-14, -1.4999920416411565e-26, -1.072043030980205e-14, -9.765325201859304e-14, 1.2900812879484431e-26, 1.0720430320294036e-14, -0.20572604635377162, 3.0171364118616792e-15, 53.369504633257414, 0.2057260475902374, 2.327456963487249e-14, 16.630495366910825, 0.20572604819246829, -8.564882720853669e-14, -16.630495366374696, -0.2057260481184685, 6.3761992548404e-14, 16.630495366169008, -0.1572226282125309, -9.425125000311705e-15, 0.6642095003886981, 0.15722262750276436, 7.953360612184002e-15, -0.6642095003961404, 0.1572226287577535, -7.326008112658147e-14, 0.6642095008542518, -0.15722262947081173, 6.887574912354242e-14, -0.6642095007726911, 16.013398027136525, -6.523062293974968e-14, 0.2057260475902374, 53.986601971270815, -5.409877509806062e-14, -0.20572604776540088, -16.013398029122794, 4.507213218111613e-14, 0.20572604718634893, 16.013398029078115, -5.3037470633894874e-14, -0.2057260469356203, 0.8366799045465753, 3.767549000390904e-14, 0.06076749391546238, -0.8366799035176576, 4.7114694627935055e-14, -0.060767493878619336, -0.8366799050364759, 7.202846379042011e-14, 0.060767493408631496, 0.836679905871144, -2.848750448403853e-14, -0.06076749348420313, 5.409877508760067e-14, 6.3865309619140066e-27, 2.327456963487249e-14, -5.409877509806062e-14, 70.0, -2.327456963738671e-14, -5.409877512739588e-14, -1.1106616157679542e-26, 2.3274569621037556e-14, 5.4098775133212843e-14, 8.785767499547881e-27, -2.32745696212156e-14, -4.058951417424202e-14, -2.8522433582690134e-27, 7.064953439863363e-15, 4.0589514167518014e-14, -4.364732594239777e-27, -7.064953439485995e-15, 4.058951414093832e-14, -1.0640300008585555e-26, 7.0649534283471825e-15, -4.058951412673637e-14, 8.666835584572344e-27, -7.0649534324375004e-15, 0.20572604652893473, -3.0171364062201184e-15, 16.630495366910825, -0.20572604776540088, -2.327456963738671e-14, 53.36950463292091, -0.20572604836763161, 8.564882721577747e-14, 16.630495366542966, 0.20572604829363234, -6.376199255503084e-14, -16.63049536633728, 0.15722262836672102, 9.425125002211273e-15, -0.6642095002932806, -0.15722262765695466, -7.953360617639404e-15, 0.6642095003007207, -0.1572226289119443, 7.326008113389775e-14, -0.6642095007588342, 0.15722262962500005, -6.887574913088154e-14, 0.6642095006772718, 16.013398027530155, -6.523062296081525e-14, 0.20572604819246829, -16.013398029122794, -5.409877512739588e-14, -0.20572604836763161, 53.98660197048356, 4.507213223540854e-14, 0.20572604778857995, 16.013398029471748, -5.3037470726621656e-14, -0.2057260475378494, 0.836679903559354, 3.767549001924842e-14, 0.06076749417691463, -0.8366799025304366, 4.711469464561959e-14, -0.0607674941400738, -0.8366799040492547, 7.202846389475525e-14, 0.060767493670086464, 0.8366799048839205, -2.8487504529212464e-14, -0.060767493745657, -4.50721321712217e-14, -1.767642890756169e-26, -8.564882720853669e-14, 4.507213218111613e-14, -1.1106616157679542e-26, 8.564882721577747e-14, 4.507213223540854e-14, 70.0, -8.564882720954896e-14, -4.5072132228648435e-14, -2.4305798144695642e-26, 8.56488272019955e-14, 8.408016234703381e-14, 5.9988801935056394e-27, -2.5984552760013112e-14, -8.408016237325162e-14, 1.2049896605857624e-26, 2.5984552760950512e-14, -8.408016230478116e-14, 2.847115462577031e-26, -2.598455274598228e-14, 8.408016231292076e-14, -2.5974350351007896e-26, 2.5984552754528954e-14, -0.20572604594988303, 3.017136390297207e-15, -16.630495366374696, 0.20572604718634893, 2.3274569621037556e-14, 16.630495366542966, 0.20572604778857995, -8.564882720954896e-14, 53.36950463399316, -0.20572604771458125, 6.376199252947461e-14, 16.630495365801146, -0.15722262837463508, -9.425124992816081e-15, 0.6642095005677207, 0.15722262766486636, 7.953360635460586e-15, -0.6642095005751616, 0.15722262891985705, -7.32600811030415e-14, 0.6642095010332725, -0.15722262963291397, 6.887574912594197e-14, -0.6642095009517122, -16.013398027485483, 6.523062296097905e-14, -0.2057260481184685, 16.013398029078115, 5.4098775133212843e-14, 0.20572604829363234, 16.013398029471748, -4.5072132228648435e-14, -0.20572604771458125, 53.98660197057292, 5.303747071142668e-14, 0.20572604746385176, -0.836679903851956, -3.7675490025039406e-14, -0.06076749411968364, 0.8366799028230394, -4.711469464613157e-14, 0.06076749408283979, 0.8366799043418582, -7.202846387847519e-14, -0.06076749361285165, -0.8366799051765252, 2.848750452212592e-14, 0.060767493688423095, 5.303747059259616e-14, 1.289901993066234e-26, 6.3761992548404e-14, -5.3037470633894874e-14, 8.785767499547881e-27, -6.376199255503084e-14, -5.3037470726621656e-14, -2.4305798144695642e-26, 6.376199252947461e-14, 5.303747071142668e-14, 70.0, -6.376199251497685e-14, -6.735248950973721e-14, -4.838180501285551e-27, 2.1568174849906468e-14, 6.735248954485292e-14, -8.736324008620166e-27, -2.1568174851344063e-14, 6.735248943793911e-14, -2.1505356970488333e-26, 2.1568174817783377e-14, -6.735248941311127e-14, 1.9046791330575877e-26, -2.1568174830354e-14, 0.20572604569915437, -3.017136394279339e-15, 16.630495366169008, -0.2057260469356203, -2.32745696212156e-14, -16.63049536633728, -0.2057260475378494, 8.56488272019955e-14, 16.630495365801146, 0.20572604746385176, -6.376199251497685e-14, 53.36950463440456, 0.15722262829454084, 9.425124994047443e-15, -0.6642095006702248, -0.15722262758477165, -7.95336063233404e-15, 0.6642095006776675, -0.1572226288397623, 7.326008108696419e-14, -0.664209501135779, 0.15722262955281824, -6.88757491173865e-14, 0.6642095010542194, -0.836679904043358, -9.765325209302267e-14, -0.1572226282125309, 0.8366799045465753, -4.058951417424202e-14, 0.15722262836672102, 0.836679903559354, 8.408016234703381e-14, -0.15722262837463508, -0.836679903851956, -6.735248950973721e-14, 0.15722262829454084, 53.74840520600364, 2.7676734382005413e-14, -0.3180471704073389, 16.25159479328151, 6.668413526995269e-14, 0.3180471703526825, 16.251594793306843, 7.807265841474359e-14, -0.3180471704067574, -16.251594793195437, -4.990484237479485e-14, 0.31804717038356234, -3.767549000337736e-14, -3.863974656653351e-27, -9.425125000311705e-15, 3.767549000390904e-14, -2.8522433582690134e-27, 9.425125002211273e-15, 3.767549001924842e-14, 5.9988801935056394e-27, -9.425124992816081e-15, -3.7675490025039406e-14, -4.838180501285551e-27, 9.425124994047443e-15, 2.7676734382005413e-14, 70.0, -2.524377457180585e-15, -2.7676734374503917e-14, 2.6771317404474704e-27, 2.5243774567727265e-15, -2.7676734362678337e-14, 5.897213625904109e-27, -2.5243774506295685e-15, 2.767673435855337e-14, -4.607577428114245e-27, 2.5243774542594472e-15, -0.06076749324287156, -1.072043030709768e-14, 0.6642095003886981, 0.06076749391546238, 7.064953439863363e-15, -0.6642095002932806, 0.06076749417691463, -2.5984552760013112e-14, 0.6642095005677207, -0.06076749411968364, 2.1568174849906468e-14, -0.6642095006702248, -0.3180471704073389, -2.524377457180585e-15, 53.16208389486186, 0.31804717007357386, 1.6755665027099354e-14, 16.837916105133722, 0.3180471706662368, -2.3587821301293424e-14, -16.837916104900252, -0.3180471710096644, 1.725970468852141e-14, 16.837916104954957, 0.8366799030144404, 9.76532520757029e-14, 0.15722262750276436, -0.8366799035176576, 4.0589514167518014e-14, -0.15722262765695466, -0.8366799025304366, -8.408016237325162e-14, 0.15722262766486636, 0.8366799028230394, 6.735248954485292e-14, -0.15722262758477165, 16.25159479328151, -2.7676734374503917e-14, 0.31804717007357386, 53.748405207433365, -6.668413525450526e-14, -0.31804717001891764, -16.25159479259198, -7.807265845248027e-14, 0.31804717007299227, 16.251594792480578, 4.990484240391674e-14, -0.3180471700497953, -4.711469459381322e-14, -1.0706146027536169e-26, 7.953360612184002e-15, 4.7114694627935055e-14, -4.364732594239777e-27, -7.953360617639404e-15, 4.711469464561959e-14, 1.2049896605857624e-26, 7.953360635460586e-15, -4.711469464613157e-14, -8.736324008620166e-27, -7.95336063233404e-15, 6.668413526995269e-14, 2.6771317404474704e-27, 1.6755665027099354e-14, -6.668413525450526e-14, 70.0, -1.6755665026735115e-14, -6.668413524237826e-14, 1.0159656317415994e-26, 1.675566503060301e-14, 6.668413519343405e-14, -8.768607647330939e-27, -1.6755665041259344e-14, 0.06076749320602719, 1.0720430306927491e-14, -0.6642095003961404, -0.060767493878619336, -7.064953439485995e-15, 0.6642095003007207, -0.0607674941400738, 2.5984552760950512e-14, -0.6642095005751616, 0.06076749408283979, -2.1568174851344063e-14, 0.6642095006776675, 0.3180471703526825, 2.5243774567727265e-15, 16.837916105133722, -0.31804717001891764, -1.6755665026735115e-14, 53.162083894870655, -0.31804717061158083, 2.358782130269627e-14, 16.837916104895864, 0.31804717095500973, -1.7259704689534693e-14, -16.83791610495057, 0.836679904533262, 9.765325206182052e-14, 0.1572226287577535, -0.8366799050364759, 4.058951414093832e-14, -0.1572226289119443, -0.8366799040492547, -8.408016230478116e-14, 0.15722262891985705, 0.8366799043418582, 6.735248943793911e-14, -0.1572226288397623, 16.251594793306843, -2.7676734362678337e-14, 0.3180471706662368, -16.25159479259198, -6.668413524237826e-14, -0.31804717061158083, 53.74840520738268, -7.80726583323255e-14, 0.3180471706656542, 16.25159479250591, 4.990484234252979e-14, -0.31804717064245863, -7.20284637396316e-14, -1.4999920416411565e-26, -7.326008112658147e-14, 7.202846379042011e-14, -1.0640300008585555e-26, 7.326008113389775e-14, 7.202846389475525e-14, 2.847115462577031e-26, -7.32600811030415e-14, -7.202846387847519e-14, -2.1505356970488333e-26, 7.326008108696419e-14, 7.807265841474359e-14, 5.897213625904109e-27, -2.3587821301293424e-14, -7.807265845248027e-14, 1.0159656317415994e-26, 2.358782130269627e-14, -7.80726583323255e-14, 70.0, -2.3587821265034723e-14, 7.807265829919985e-14, -2.237931155655307e-26, 2.3587821277943687e-14, -0.06076749273604136, -1.072043030980205e-14, 0.6642095008542518, 0.060767493408631496, 7.0649534283471825e-15, -0.6642095007588342, 0.060767493670086464, -2.598455274598228e-14, 0.6642095010332725, -0.06076749361285165, 2.1568174817783377e-14, -0.664209501135779, -0.3180471704067574, -2.5243774506295685e-15, -16.837916104900252, 0.31804717007299227, 1.675566503060301e-14, 16.837916104895864, 0.3180471706656542, -2.3587821265034723e-14, 53.16208389533762, -0.3180471710090827, 1.72597046757593e-14, 16.8379161047171, -0.836679905367927, -9.765325201859304e-14, -0.15722262947081173, 0.836679905871144, -4.058951412673637e-14, 0.15722262962500005, 0.8366799048839205, 8.408016231292076e-14, -0.15722262963291397, -0.8366799051765252, -6.735248941311127e-14, 0.15722262955281824, -16.251594793195437, 2.767673435855337e-14, -0.3180471710096644, 16.251594792480578, 6.668413519343405e-14, 0.31804717095500973, 16.25159479250591, 7.807265829919985e-14, -0.3180471710090827, 53.748405207605515, -4.990484234904565e-14, 0.31804717098588814, 2.848750447192173e-14, 1.2900812879484431e-26, 6.887574912354242e-14, -2.848750448403853e-14, 8.666835584572344e-27, -6.887574913088154e-14, -2.8487504529212464e-14, -2.5974350351007896e-26, 6.887574912594197e-14, 2.848750452212592e-14, 1.9046791330575877e-26, -6.88757491173865e-14, -4.990484237479485e-14, -4.607577428114245e-27, 1.725970468852141e-14, 4.990484240391674e-14, -8.768607647330939e-27, -1.7259704689534693e-14, 4.990484234252979e-14, -2.237931155655307e-26, 1.72597046757593e-14, -4.990484234904565e-14, 70.0, -1.7259704683848515e-14, 0.060767492811612624, 1.0720430320294036e-14, -0.6642095007726911, -0.06076749348420313, -7.0649534324375004e-15, 0.6642095006772718, -0.060767493745657, 2.5984552754528954e-14, -0.6642095009517122, 0.060767493688423095, -2.1568174830354e-14, 0.6642095010542194, 0.31804717038356234, 2.5243774542594472e-15, 16.837916104954957, -0.3180471700497953, -1.6755665041259344e-14, -16.83791610495057, -0.31804717064245863, 2.3587821277943687e-14, 16.8379161047171, 0.31804717098588814, -1.7259704683848515e-14, 53.16208389522819]]}, {"__ndarray__": [[24], "float64", [9.890702340927152, 3.12404180107275, 0.13799122579142753, 1.629036625206521, 1.04134726702425, 4.223770643244652, 7.388906108273409, 1.04134726702425, 2.318872160309447, 4.130832857860371, 3.12404180107275, 2.0428897087266695, 1.3770069599177668, 3.12404180107275, 1.7569365188793447, 10.14273200621611, 1.04134726702425, 2.604825350156751, 4.3828625231491065, 1.04134726702425, 3.9378174533973445, 7.136876442984769, 3.12404180107275, 0.42394441563873114]]}, {"__ndarray__": [[24], "float64", [-0.0001275623226257736, 1.0520520862207538e-15, -0.00012914277940585795, 0.00012756232333675097, -8.727063987288579e-16, 0.0001291427794564439, 0.00012756232403792714, -1.0651332499787621e-15, -0.00012914277908798657, -0.0001275623238511509, 1.0491987394145575e-15, 0.00012914277895855906, 3.897384691264427e-05, 6.307193541614463e-16, -5.4264448486317034e-05, -3.8973847232198766e-05, -7.884073716427827e-16, 5.4264448495656026e-05, -3.897384633873161e-05, -8.008743285228383e-16, -5.4264448163923555e-05, 3.897384576052594e-05, 7.923712558892709e-16, 5.426444823342894e-05]]}, 0.2]