[{"__ndarray__": [[24, 24], "float64", [53.84829653901043, -0.00044623653617913264, -0.13948941385707367, 16.15079458043137, 0.0007934557108193072, 0.1385931452060637, 16.15713817736235, -0.00023899273378976576, -0.13544680165220935, -16.155566603348497, -0.0004039527826431858, 0.13512347953361048, -0.7865366803431589, 0.0018141854439121734, 0.016304337283455914, 0.7872691800674689, -0.0001461130401969481, -0.016548419567034955, 0.7869860716966052, -0.0008217283531188142, 0.014524512012886445, -0.7883812648525274, -0.0005506177983528198, -0.013060838758283344, -0.00044623653617913264, 69.99999923170301, 0.00036877790144246205, 0.000443284027613066, 1.746296475909198e-08, -0.00038007308142442, 0.00043002650996097933, 3.097522077692812e-06, 0.00035992602023762803, -0.0004303249171623448, 3.1965613733809067e-07, -0.00035809597618855193, -0.0021388386698333746, -3.540225687664185e-07, -0.00020668783550248327, 0.002141067217425338, 5.3970600488712076e-08, 0.0002124831913530138, 0.0021179525075261728, 2.579843363410707e-07, -0.00022308643757001505, -0.0021169301394576012, -2.624276653108598e-06, 0.00022675621757284016, -0.13948941385707367, 0.00036877790144246205, 53.32191323495245, 0.14075346570247696, 0.0004180427976684474, 16.684953444168613, 0.15044127539632823, -0.0010533847201880673, -16.673857473362133, -0.15031719856713815, -0.0002373137057858374, 16.672494855387264, -0.206918219928719, -8.943881475193414e-05, 0.5938088055482219, 0.20558822103833688, -0.0009262656545478295, -0.5967100461393391, 0.20952370729393777, -0.001025135590629441, 0.6017319284144056, -0.2095818374064725, 0.0025447180817914227, -0.6043347489668754, 16.15079458043137, 0.000443284027613066, 0.14075346570247696, 53.85019167668577, -0.0007911207841532838, -0.1398851726077054, -16.156202825179815, 0.0002468085135270334, 0.13668146915513052, 16.15471451763454, 0.0004096498659927822, -0.1363426493599034, 0.7785552988812567, -0.001826877050115926, -0.018467499910536547, -0.779203119668993, 0.0001401324151539384, 0.01870038336211187, -0.7792500773819508, 0.0008364969880836418, -0.016703154586914057, 0.7803999485724344, 0.0005416261129865645, 0.01526315804376073, 0.0007934557108193072, 1.746296475909198e-08, 0.0004180427976684474, -0.0007911207841532838, 70.00000012627827, -0.0004198940489816601, -0.0007959596014999635, 9.685197045552433e-07, 0.00041491483260381153, 0.0007982652650481384, 4.2651980792636714e-07, -0.00041426528699376814, 0.0005346185728274332, -7.620450157219917e-07, 0.0009505462372223336, -0.0005323438753907514, -3.401738661596596e-07, -0.0009503075270826151, -0.0005464028348633742, 1.5762356161658626e-07, 0.0009486497617898034, 0.0005394875471200391, -5.941854503538347e-07, -0.0009476867662734476, 0.1385931452060637, -0.00038007308142442, 16.684953444168613, -0.1398851726077054, -0.0004198940489816601, 53.30807077680064, -0.14969862111269394, 0.0010768849971624288, 16.680639425180118, 0.14957177002261865, 0.00023566806139602918, -16.679262315529726, 0.18635613863325395, 9.17494113888225e-05, -0.5962523242815009, -0.18500569271775422, 0.0009346241690452855, 0.5992209253357923, -0.18909325603201313, 0.0010239242865538426, -0.6043446438713435, 0.18916168893623328, -0.0025628840909201816, 0.6069747121940742, 16.15713817736235, 0.00043002650996097933, 0.15044127539632823, -16.156202825179815, -0.0007959596014999635, -0.14969862111269394, 53.83725323001709, 0.00027263249194592695, 0.1462640045778551, 16.161232444888903, 0.00040606098805721214, -0.14591155665760325, 0.7682911026926006, -0.0018262694248141224, -0.011510180799077091, -0.7689374288594064, 0.00015448689668148287, 0.011835431484612177, -0.7690609781346951, 0.0008336040092388995, -0.009951484240815975, 0.7702862771869696, 0.0005254182188336937, 0.008531131148590776, -0.00023899273378976576, 3.097522077692812e-06, -0.0010533847201880673, 0.0002468085135270334, 9.685197045552433e-07, 0.0010768849971624288, 0.00027263249194592695, 69.99999636981367, -0.0010350632223489302, -0.00026975099735902265, 1.3645299402079483e-06, 0.0010330878487222284, 0.0036408966042046995, -1.2656437200341329e-06, -0.0009404443027739757, -0.0036432645843002226, -3.549705779964969e-06, 0.0009215050148058818, -0.0036346830194502492, 9.623720114014973e-07, -0.0009004766617229418, 0.0036263537252836948, 2.05259219263029e-06, 0.000897891046546565, -0.13544680165220935, 0.00035992602023762803, -16.673857473362133, 0.13668146915513052, 0.00041491483260381153, 16.680639425180118, 0.1462640045778551, -0.0010350632223489302, 53.33029865507362, -0.1461534685913064, -0.00023940040666553154, 16.668348956059653, -0.21537046166648152, -8.931635713291255e-05, 0.600832234343458, 0.21404519849945577, -0.0009175545125653709, -0.6036743376745869, 0.21790139680911835, -0.0010270071988967068, 0.6086187574341315, -0.21792133746048226, 0.002533501139393639, -0.6112062170525514, -16.155566603348497, -0.0004303249171623448, -0.15031719856713815, 16.15471451763454, 0.0007982652650481384, 0.14957177002261865, 16.161232444888903, -0.00026975099735902265, -0.1461534685913064, 53.840364896808175, -0.00039977243559332574, 0.1458135001415732, -0.7679162459240245, 0.0018122844564702658, 0.01245718382974377, 0.7686415160025961, -0.00016230695526262467, -0.012808701544802875, 0.7684709387985827, -0.000818444286232718, 0.010921904165651211, -0.769941464835666, -0.0005299502185511059, -0.009484989253574036, -0.0004039527826431858, 3.1965613733809067e-07, -0.0002373137057858374, 0.0004096498659927822, 4.2651980792636714e-07, 0.00023566806139602918, 0.00040606098805721214, 1.3645299402079483e-06, -0.00023940040666553154, -0.00039977243559332574, 70.00000112516713, 0.00024106490725526422, -0.0004138553828758221, -1.8853433560063442e-06, -6.147168746126108e-05, 0.00042016278982450595, -1.4659607325334418e-06, 5.8503786382730023e-05, 0.0003871088655751833, 1.5960728012150195e-06, -6.040176903991731e-05, -0.0004054019085178883, -1.4806417896138701e-06, 6.335081392443907e-05, 0.13512347953361048, -0.00035809597618855193, 16.672494855387264, -0.1363426493599034, -0.00041426528699376814, -16.679262315529726, -0.14591155665760325, 0.0010330878487222284, 16.668348956059653, 0.1458135001415732, 0.00024106490725526422, 53.33300475142125, 0.21711701656229018, 8.613747974286451e-05, -0.6014871704351956, -0.21578317596406218, 0.000914227042577536, 0.6043116305814092, -0.21967535312071898, 0.001030383354913505, -0.6092443519354493, 0.2196587391935863, -0.0025325396646106823, 0.6118336444492515, -0.7865366803431589, -0.0021388386698333746, -0.206918219928719, 0.7785552988812567, 0.0005346185728274332, 0.18635613863325395, 0.7682911026926006, 0.0036408966042046995, -0.21537046166648152, -0.7679162459240245, -0.0004138553828758221, 0.21711701656229018, 53.64411973896461, 0.0012988213152095006, -0.2731972132616692, 16.361828537490204, 0.0005468231038127478, 0.28726531690224566, 16.333832003782568, 0.0006826728576429569, -0.304694500386281, -16.332173755372636, -0.0041511386139477, 0.3094419233568611, 0.0018141854439121734, -3.540225687664185e-07, -8.943881475193414e-05, -0.001826877050115926, -7.620450157219917e-07, 9.17494113888225e-05, -0.0018262694248141224, -1.2656437200341329e-06, -8.931635713291255e-05, 0.0018122844564702658, -1.8853433560063442e-06, 8.613747974286451e-05, 0.0012988213152095006, 70.00000519785068, 0.0025243796136032977, -0.0013123007744178406, 1.982438777397946e-06, -0.002518556640927163, -0.0012577835117945665, -4.933426706135021e-06, 0.0025208604297375734, 0.001297939545787555, 2.0201920523473933e-06, -0.002525815121747033, 0.016304337283455914, -0.00020668783550248327, 0.5938088055482219, -0.018467499910536547, 0.0009505462372223336, -0.5962523242815009, -0.011510180799077091, -0.0009404443027739757, 0.600832234343458, 0.01245718382974377, -6.147168746126108e-05, -0.6014871704351956, -0.2731972132616692, 0.0025243796136032977, 53.141729197267296, 0.2750385418980156, 0.0003849794410391575, 16.859034052954538, 0.281974522086808, -0.0006941299876945912, -16.861761934713286, -0.28259969068028806, -0.001957171808049883, 16.864097139433348, 0.7872691800674689, 0.002141067217425338, 0.20558822103833688, -0.779203119668993, -0.0005323438753907514, -0.18500569271775422, -0.7689374288594064, -0.0036432645843002226, 0.21404519849945577, 0.7686415160025961, 0.00042016278982450595, -0.21578317596406218, 16.361828537490204, -0.0013123007744178406, 0.2750385418980156, 53.63229589150803, -0.0005563000438070267, -0.28914520605463956, -16.339948550167602, -0.0006668654706763568, 0.30659437663321554, 16.338053973454798, 0.0041498449541758214, -0.3113322635440175, -0.0001461130401969481, 5.3970600488712076e-08, -0.0009262656545478295, 0.0001401324151539384, -3.401738661596596e-07, 0.0009346241690452855, 0.00015448689668148287, -3.549705779964969e-06, -0.0009175545125653709, -0.00016230695526262467, -1.4659607325334418e-06, 0.000914227042577536, 0.0005468231038127478, 1.982438777397946e-06, 0.0003849794410391575, -0.0005563000438070267, 70.00000235941295, -0.0003840890070287602, -0.0004973643210915174, -2.9840594417542126e-06, 0.0003919637337089047, 0.0005206419449520123, 3.9440776143789045e-06, -0.00039788521215205043, -0.016548419567034955, 0.0002124831913530138, -0.5967100461393391, 0.01870038336211187, -0.0009503075270826151, 0.5992209253357923, 0.011835431484612177, 0.0009215050148058818, -0.6036743376745869, -0.012808701544802875, 5.8503786382730023e-05, 0.6043116305814092, 0.28726531690224566, -0.002518556640927163, 16.859034052954538, -0.28914520605463956, -0.0003840890070287602, 53.14018526598167, -0.2958407580413662, 0.0006879697640337906, 16.86261141835834, 0.29654195301315406, 0.001972491748601597, -16.864978909514267, 0.7869860716966052, 0.0021179525075261728, 0.20952370729393777, -0.7792500773819508, -0.0005464028348633742, -0.18909325603201313, -0.7690609781346951, -0.0036346830194502492, 0.21790139680911835, 0.7684709387985827, 0.0003871088655751833, -0.21967535312071898, 16.333832003782568, -0.0012577835117945665, 0.281974522086808, -16.339948550167602, -0.0004973643210915174, -0.2958407580413662, 53.688898282055646, -0.0007260722540893482, 0.3131600607684786, 16.310072309182413, 0.004157244780880403, -0.31795031997679296, -0.0008217283531188142, 2.579843363410707e-07, -0.001025135590629441, 0.0008364969880836418, 1.5762356161658626e-07, 0.0010239242865538426, 0.0008336040092388995, 9.623720114014973e-07, -0.0010270071988967068, -0.000818444286232718, 1.5960728012150195e-06, 0.001030383354913505, 0.0006826728576429569, -4.933426706135021e-06, -0.0006941299876945912, -0.0006668654706763568, -2.9840594417542126e-06, 0.0006879697640337906, -0.0007260722540893482, 70.00000760089658, -0.0006880783417701397, 0.0006803365088166753, -2.6574632154221325e-06, 0.0006920737135073801, 0.014524512012886445, -0.00022308643757001505, 0.6017319284144056, -0.016703154586914057, 0.0009486497617898034, -0.6043446438713435, -0.009951484240815975, -0.0009004766617229418, 0.6086187574341315, 0.010921904165651211, -6.040176903991731e-05, -0.6092443519354493, -0.304694500386281, 0.0025208604297375734, -16.861761934713286, 0.30659437663321554, 0.0003919637337089047, 16.86261141835834, 0.3131600607684786, -0.0006880783417701397, 53.134501663600936, -0.31385171392088274, -0.001989431046014458, 16.867887162828, -0.7883812648525274, -0.0021169301394576012, -0.2095818374064725, 0.7803999485724344, 0.0005394875471200391, 0.18916168893623328, 0.7702862771869696, 0.0036263537252836948, -0.21792133746048226, -0.769941464835666, -0.0004054019085178883, 0.2196587391935863, -16.332173755372636, 0.001297939545787555, -0.28259969068028806, 16.338053973454798, 0.0005206419449520123, 0.29654195301315406, 16.310072309182413, 0.0006803365088166753, -0.31385171392088274, 53.691683976836885, -0.004142427435851101, 0.3185921985378509, -0.0005506177983528198, -2.624276653108598e-06, 0.0025447180817914227, 0.0005416261129865645, -5.941854503538347e-07, -0.0025628840909201816, 0.0005254182188336937, 2.05259219263029e-06, 0.002533501139393639, -0.0005299502185511059, -1.4806417896138701e-06, -0.0025325396646106823, -0.0041511386139477, 2.0201920523473933e-06, -0.001957171808049883, 0.0041498449541758214, 3.9440776143789045e-06, 0.001972491748601597, 0.004157244780880403, -2.6574632154221325e-06, -0.001989431046014458, -0.004142427435851101, 69.99999933970508, 0.001991315639718035, -0.013060838758283344, 0.00022675621757284016, -0.6043347489668754, 0.01526315804376073, -0.0009476867662734476, 0.6069747121940742, 0.008531131148590776, 0.000897891046546565, -0.6112062170525514, -0.009484989253574036, 6.335081392443907e-05, 0.6118336444492515, 0.3094419233568611, -0.002525815121747033, 16.864097139433348, -0.3113322635440175, -0.00039788521215205043, -16.864978909514267, -0.31795031997679296, 0.0006920737135073801, 16.867887162828, 0.3185921985378509, 0.001991315639718035, 53.129727216513416]]}, {"__ndarray__": [[24], "float64", [9.955315741726686, 3.1459978875457804, 0.1427726190044325, 1.6453849146624273, 1.0486659514072292, 4.249643203369712, 7.4457343591857965, 1.048666015595912, 2.338980896210365, 4.154966534536128, 3.1459979863521417, 2.0534360524030593, 1.397640721840501, 3.1459979659584505, 1.7419107006813805, 10.203060434856662, 1.0486661849479322, 2.650506563158854, 4.402710485089883, 1.0486661521170162, 3.9381179336572387, 7.197990756022568, 3.145997419534472, 0.4542993192386681]]}, {"__ndarray__": [[24], "float64", [-1.3643959474812263e-05, 3.960429118740638e-07, -4.5436601816074104e-05, 1.620296013893511e-05, 1.8816445189004823e-07, 4.9887179698167776e-05, 2.072154205506501e-05, -9.906479244568422e-07, -4.20372005735601e-05, -1.916627567132803e-05, 5.396453526803465e-08, 4.140935858089651e-05, 0.00014255856164682512, 3.5552630163494996e-07, -3.8123135146579956e-05, -0.00014183710724985336, -3.580063249978946e-07, 3.5122433756302333e-05, -0.00013913384677216597, -2.793302155922572e-07, -3.114575755673958e-05, 0.00013429812532733437, 6.342862643798976e-07, 3.0323723057587112e-05]]}, 0.2]