[{"__ndarray__": [[24, 24], "float64", [53.83368136169531, 1.0934717367219365e-14, -0.14276761909504426, 16.166318637829924, -1.5188101781316672e-14, 0.14276761929582052, 16.16631863753719, 7.285140559012662e-15, -0.1427676190026054, -16.166318637811077, -3.2560208984898436e-15, 0.1427676191291351, -0.7344871708621445, 5.729911948406239e-15, -0.0057566109703080515, 0.734487170684091, -2.9338334227363017e-15, 0.005756610706929177, 0.7344871708942765, 1.321196144466022e-14, -0.005756610877254098, -0.7344871699989618, -1.5766782762458224e-14, 0.005756610792736233, 1.0934717367219365e-14, 70.0, -2.19644160544982e-16, -1.0934717370688635e-14, -3.1241397809976654e-28, 2.1964416282809218e-16, -1.0934717381432862e-14, -2.684491163565956e-28, -2.1964416307543084e-16, 1.093471738278471e-14, 1.8992335813962378e-28, 2.196441624584998e-16, -1.7632540988665223e-14, 8.615396479194268e-29, 7.063224567383207e-15, 1.7632540986664155e-14, -2.544971123532385e-28, -7.063224568561601e-15, 1.7632540977660052e-14, 4.373172403480882e-29, 7.063224566542745e-15, -1.7632540973275503e-14, 1.037237686400975e-28, -7.063224566067256e-15, -0.14276761909504426, -2.19644160544982e-16, 53.303104565565846, 0.14276761951010777, -8.557330294040883e-15, 16.696895434461123, 0.1427676200117386, -1.5010763569768388e-14, -16.696895434263006, -0.1427676202629069, 1.0921916618294219e-14, 16.696895434376653, -0.23107355582981665, 4.70544936070897e-15, 0.5986352036772596, 0.2310735558743477, 4.475382263872913e-16, -0.5986352036573666, 0.23107355652442133, -5.310605602679376e-15, 0.598635203668509, -0.23107355681560776, 1.3695527643151592e-14, -0.5986352037308149, 16.166318637829924, -1.0934717370688635e-14, 0.14276761951010777, 53.83368136264484, 1.5188101688061897e-14, -0.14276761971088409, -16.16631863706243, -7.285140570158106e-15, 0.14276761941766963, 16.166318637336317, 3.2560209047706046e-15, -0.1427676195441982, 0.7344871686777922, -5.729911863876838e-15, 0.005756611341561885, -0.7344871684997405, 2.9338334294647862e-15, -0.005756611078183371, -0.734487168709924, -1.321196144298145e-14, 0.00575661124850857, 0.734487167814606, 1.5766782769529235e-14, -0.005756611163991232, -1.5188101781316672e-14, -3.1241397809976654e-28, -8.557330294040883e-15, 1.5188101688061897e-14, 70.0, 8.557330308703302e-15, 1.5188101591019068e-14, 2.5844354261306304e-28, -8.557330309440451e-15, -1.5188101578457295e-14, -2.109827390700408e-28, 8.557330309064587e-15, 1.654118261153112e-14, -1.4343846585824752e-28, -1.1451803088053224e-14, -1.654118263256323e-14, 1.4598932173009884e-28, 1.1451803072476868e-14, -1.654118272054685e-14, -7.967165774329621e-29, -1.1451803088314393e-14, 1.6541182819948733e-14, -7.846581699240292e-29, 1.1451803090058691e-14, 0.14276761929582052, 2.1964416282809218e-16, 16.696895434461123, -0.14276761971088409, 8.557330308703302e-15, 53.3031045655119, -0.14276762021251488, 1.5010763571126506e-14, 16.69689543429, 0.14276762046368296, -1.092191661933006e-14, -16.69689543440365, 0.23107355637240126, -4.705449375209931e-15, -0.598635203609172, -0.23107355641693186, -4.475382282338328e-16, 0.5986352035892792, -0.23107355706700541, 5.310605603585099e-15, -0.5986352036004222, 0.2310735573581935, -1.3695527644890994e-14, 0.5986352036627276, 16.16631863753719, -1.0934717381432862e-14, 0.1427676200117386, -16.16631863706243, 1.5188101591019068e-14, -0.14276762021251488, 53.8336813632303, -7.285140576663463e-15, 0.14276761991930037, 16.166318637043588, 3.25602091111313e-15, -0.14276762004582966, 0.7344871667462959, -5.729911772710892e-15, 0.005756611932725808, -0.7344871665682428, 2.933833440791214e-15, -0.00575661166934735, -0.7344871667784285, -1.3211961444196836e-14, 0.005756611839674297, 0.7344871658831141, 1.576678277469552e-14, -0.005756611755157098, 7.285140559012662e-15, -2.684491163565956e-28, -1.5010763569768388e-14, -7.285140570158106e-15, 2.5844354261306304e-28, 1.5010763571126506e-14, -7.285140576663463e-15, 70.0, -1.501076357277441e-14, 7.285140580290729e-15, -3.9461184124917635e-28, 1.5010763572261478e-14, 1.331817395399376e-14, -1.010611322486188e-28, -1.6432454976366818e-14, -1.3318173954349434e-14, 2.0066358985543196e-28, 1.6432454974993806e-14, -1.331817396439144e-14, 2.064816299214601e-28, -1.6432454977323328e-14, 1.3318173976723865e-14, -5.147994703943523e-28, 1.6432454977515014e-14, -0.1427676190026054, -2.1964416307543084e-16, -16.696895434263006, 0.14276761941766963, -8.557330309440451e-15, 16.69689543429, 0.14276761991930037, -1.501076357277441e-14, 53.30310456590812, -0.14276762017046893, 1.0921916619378415e-14, 16.696895434205533, -0.23107355594074536, 4.7054493759871925e-15, 0.5986352039097902, 0.23107355598527618, 4.475382283669133e-16, -0.5986352038898977, 0.23107355663534979, -5.310605603483098e-15, 0.5986352039010405, -0.23107355692653594, 1.3695527646295951e-14, -0.5986352039633469, -16.166318637811077, 1.093471738278471e-14, -0.1427676202629069, 16.166318637336317, -1.5188101578457295e-14, 0.14276762046368296, 16.166318637043588, 7.285140580290729e-15, -0.14276762017046893, 53.833681362682526, -3.256020911272497e-15, 0.1427676202969979, -0.7344871669424686, 5.7299117611158956e-15, -0.005756612211691076, 0.7344871667644151, -2.9338334423340185e-15, 0.005756611948313312, 0.7344871669746028, 1.3211961443023434e-14, -0.005756612118637483, -0.7344871660792853, -1.576678277738425e-14, 0.005756612034122227, -3.2560208984898436e-15, 1.8992335813962378e-28, 1.0921916618294219e-14, 3.2560209047706046e-15, -2.109827390700408e-28, -1.092191661933006e-14, 3.25602091111313e-15, -3.9461184124917635e-28, 1.0921916619378415e-14, -3.256020911272497e-15, 70.0, -1.0921916619374428e-14, -8.142263699897208e-15, 7.2555742373829e-29, 1.219869338084548e-14, 8.142263700542711e-15, -1.2732494906791152e-28, -1.2198693379280044e-14, 8.14226370682765e-15, -1.1422498492820985e-28, 1.21986933807649e-14, -8.142263717019507e-15, 3.2538442750209004e-28, -1.2198693380942589e-14, 0.1427676191291351, 2.196441624584998e-16, 16.696895434376653, -0.1427676195441982, 8.557330309064587e-15, -16.69689543440365, -0.14276762004582966, 1.5010763572261478e-14, 16.696895434205533, 0.1427676202969979, -1.0921916619374428e-14, 53.303104565680805, 0.2310735561619243, -4.7054493754399754e-15, -0.598635203763636, -0.23107355620645478, -4.47538228021841e-16, 0.5986352037437448, -0.2310735568565294, 5.310605603414965e-15, -0.5986352037548873, 0.23107355714771524, -1.369552764566196e-14, 0.5986352038171932, -0.7344871708621445, -1.7632540988665223e-14, -0.23107355582981665, 0.7344871686777922, 1.654118261153112e-14, 0.23107355637240126, 0.7344871667462959, 1.331817395399376e-14, -0.23107355594074536, -0.7344871669424686, -8.142263699897208e-15, 0.2310735561619243, 53.80485305391265, -8.154931126468442e-15, -0.3436332119741956, 16.19514694546311, 1.0839053616135406e-14, 0.34363321132681635, 16.195146944457523, -1.1689347086024357e-15, -0.3436332118488544, -16.195146941697327, -6.111542011884996e-15, 0.3436332117444116, 5.729911948406239e-15, 8.615396479194268e-29, 4.70544936070897e-15, -5.729911863876838e-15, -1.4343846585824752e-28, -4.705449375209931e-15, -5.729911772710892e-15, -1.010611322486188e-28, 4.7054493759871925e-15, 5.7299117611158956e-15, 7.2555742373829e-29, -4.7054493754399754e-15, -8.154931126468442e-15, 70.0, 4.175170804102619e-15, 8.154931145288392e-15, -4.119192047116589e-29, -4.175170789693342e-15, 8.154931228772702e-15, 1.3038162238873792e-29, 4.175170805307418e-15, -8.154931318976277e-15, 4.7060605340989e-29, -4.1751708067205895e-15, -0.0057566109703080515, 7.063224567383207e-15, 0.5986352036772596, 0.005756611341561885, -1.1451803088053224e-14, -0.598635203609172, 0.005756611932725808, -1.6432454976366818e-14, 0.5986352039097902, -0.005756612211691076, 1.219869338084548e-14, -0.598635203763636, -0.3436332119741956, 4.175170804102619e-15, 53.10201669659725, 0.34363321205001396, -3.8907761739300415e-15, 16.89798330331884, 0.34363321294319715, -3.50131414457529e-15, -16.897983303350095, -0.34363321292451937, 1.2649143554940714e-14, 16.897983303233385, 0.734487170684091, 1.7632540986664155e-14, 0.2310735558743477, -0.7344871684997405, -1.654118263256323e-14, -0.23107355641693186, -0.7344871665682428, -1.3318173954349434e-14, 0.23107355598527618, 0.7344871667644151, 8.142263700542711e-15, -0.23107355620645478, 16.19514694546311, 8.154931145288392e-15, 0.34363321205001396, 53.804853055161125, -1.083905361323319e-14, -0.3436332114026357, -16.19514694383329, 1.1689347105482281e-15, 0.34363321192467305, 16.1951469410731, 6.1115420107523e-15, -0.3436332118202315, -2.9338334227363017e-15, -2.544971123532385e-28, 4.475382263872913e-16, 2.9338334294647862e-15, 1.4598932173009884e-28, -4.475382282338328e-16, 2.933833440791214e-15, 2.0066358985543196e-28, 4.475382283669133e-16, -2.9338334423340185e-15, -1.2732494906791152e-28, -4.47538228021841e-16, 1.0839053616135406e-14, -4.119192047116589e-29, -3.8907761739300415e-15, -1.083905361323319e-14, 70.0, 3.890776175311829e-15, -1.0839053604083369e-14, 2.1346123004054098e-29, -3.890776173682153e-15, 1.0839053596232613e-14, -1.2422773002071551e-28, 3.890776173166813e-15, 0.005756610706929177, -7.063224568561601e-15, -0.5986352036573666, -0.005756611078183371, 1.1451803072476868e-14, 0.5986352035892792, -0.00575661166934735, 1.6432454974993806e-14, -0.5986352038898977, 0.005756611948313312, -1.2198693379280044e-14, 0.5986352037437448, 0.34363321132681635, -4.175170789693342e-15, 16.89798330331884, -0.3436332114026357, 3.890776175311829e-15, 53.10201669676507, -0.3436332122958181, 3.5013141441106194e-15, 16.897983303266194, 0.3436332122771408, -1.2649143553928338e-14, -16.897983303149488, 0.7344871708942765, 1.7632540977660052e-14, 0.23107355652442133, -0.734487168709924, -1.654118272054685e-14, -0.23107355706700541, -0.7344871667784285, -1.331817396439144e-14, 0.23107355663534979, 0.7344871669746028, 8.14226370682765e-15, -0.2310735568565294, 16.195146944457523, 8.154931228772702e-15, 0.34363321294319715, -16.19514694383329, -1.0839053604083369e-14, -0.3436332122958181, 53.80485305717229, 1.1689347079527977e-15, 0.3436332128178579, 16.19514694006751, 6.111542019834903e-15, -0.3436332127134144, 1.321196144466022e-14, 4.373172403480882e-29, -5.310605602679376e-15, -1.321196144298145e-14, -7.967165774329621e-29, 5.310605603585099e-15, -1.3211961444196836e-14, 2.064816299214601e-28, -5.310605603483098e-15, 1.3211961443023434e-14, -1.1422498492820985e-28, 5.310605603414965e-15, -1.1689347086024357e-15, 1.3038162238873792e-29, -3.50131414457529e-15, 1.1689347105482281e-15, 2.1346123004054098e-29, 3.5013141441106194e-15, 1.1689347079527977e-15, 70.0, -3.5013141454093606e-15, -1.1689347064262997e-15, -2.721804302677475e-28, 3.5013141451734044e-15, -0.005756610877254098, 7.063224566542745e-15, 0.598635203668509, 0.00575661124850857, -1.1451803088314393e-14, -0.5986352036004222, 0.005756611839674297, -1.6432454977323328e-14, 0.5986352039010405, -0.005756612118637483, 1.21986933807649e-14, -0.5986352037548873, -0.3436332118488544, 4.175170805307418e-15, -16.897983303350095, 0.34363321192467305, -3.890776173682153e-15, 16.897983303266194, 0.3436332128178579, -3.5013141454093606e-15, 53.10201669670254, -0.34363321279918063, 1.2649143556480104e-14, 16.89798330318075, -0.7344871699989618, -1.7632540973275503e-14, -0.23107355681560776, 0.734487167814606, 1.6541182819948733e-14, 0.2310735573581935, 0.7344871658831141, 1.3318173976723865e-14, -0.23107355692653594, -0.7344871660792853, -8.142263717019507e-15, 0.23107355714771524, -16.195146941697327, -8.154931318976277e-15, -0.34363321292451937, 16.1951469410731, 1.0839053596232613e-14, 0.3436332122771408, 16.19514694006751, -1.1689347064262997e-15, -0.34363321279918063, 53.804853062692686, -6.111542027827111e-15, 0.3436332126947388, -1.5766782762458224e-14, 1.037237686400975e-28, 1.3695527643151592e-14, 1.5766782769529235e-14, -7.846581699240292e-29, -1.3695527644890994e-14, 1.576678277469552e-14, -5.147994703943523e-28, 1.3695527646295951e-14, -1.576678277738425e-14, 3.2538442750209004e-28, -1.369552764566196e-14, -6.111542011884996e-15, 4.7060605340989e-29, 1.2649143554940714e-14, 6.1115420107523e-15, -1.2422773002071551e-28, -1.2649143553928338e-14, 6.111542019834903e-15, -2.721804302677475e-28, 1.2649143556480104e-14, -6.111542027827111e-15, 70.0, -1.2649143556479905e-14, 0.005756610792736233, -7.063224566067256e-15, -0.5986352037308149, -0.005756611163991232, 1.1451803090058691e-14, 0.5986352036627276, -0.005756611755157098, 1.6432454977515014e-14, -0.5986352039633469, 0.005756612034122227, -1.2198693380942589e-14, 0.5986352038171932, 0.3436332117444116, -4.1751708067205895e-15, 16.897983303233385, -0.3436332118202315, 3.890776173166813e-15, -16.897983303149488, -0.3436332127134144, 3.5013141451734044e-15, 16.89798330318075, 0.3436332126947388, -1.2649143556479905e-14, 53.102016696935955]]}, {"__ndarray__": [[24], "float64", [9.955668261595276, 3.1459979181485624, 0.1458166414465769, 1.6450327253846484, 1.0486659727161876, 4.246600180484408, 7.445383218874563, 1.0486659727161876, 2.342025052412037, 4.155317768105581, 3.1459979181485624, 2.0503917695189138, 1.3968772088606112, 3.1459979181485624, 1.7359795208255018, 10.203823778119501, 1.0486659727161876, 2.6564373011053504, 4.403473284629357, 1.0486659727161876, 3.932187931790994, 7.197227702351105, 3.1459979181485624, 0.4602288901399198]]}, {"__ndarray__": [[24], "float64", [-2.99452843002953e-06, 1.0457150684856393e-16, -0.00022077434978953368, 2.9945302110052875e-06, -2.1610119171499114e-16, 0.0002207743494960755, 2.994532042680507e-06, -2.0423005100140918e-16, -0.00022077434948283132, -2.994532315087387e-06, 1.0741623632981701e-16, 0.00022077434949211274, 0.0005236168339229769, 1.5840940793420127e-16, -0.000321318456959709, -0.0005236168335455713, -5.3049037468380096e-17, 0.00032131845729824887, -0.0005236168318974897, -4.7619074212827625e-17, -0.00032131845701559216, 0.0005236168300115226, 1.5209004642778791e-16, 0.00032131845696123704]]}, 0.2]