[{"__ndarray__": [[24, 24], "float64", [53.96773807725614, 5.409190965465336e-13, -0.13875400753370193, 16.03226192292674, -2.0739342314656082e-13, 0.13875400812670535, 16.03226191762175, 8.324960931920302e-14, -0.13875400507013513, -16.032261920397932, -2.2133646817377202e-13, 0.13875400782121206, -0.8583860418233452, 2.454133539697836e-13, -0.05108924025881861, 0.8583860445510112, -4.272549380322342e-13, 0.0510892395191776, 0.8583860348173695, 1.3524722354317522e-13, -0.051089240378908184, -0.8583860365247727, -1.6512598469922969e-13, 0.05108923795919743, 5.409190965465336e-13, 70.0, 1.1851377046605426e-13, -5.409190975537985e-13, -8.279036513624941e-25, -1.1851377054646264e-13, -5.409190948886159e-13, -5.273668252711664e-25, 1.185137699996187e-13, 5.409190961910895e-13, -1.6373279532242528e-25, -1.1851377064002634e-13, 3.5826521275168637e-13, 7.674604095556468e-25, 3.196530136523784e-13, -3.5826521307537067e-13, -1.4534265298467317e-24, -3.1965301358733414e-13, -3.5826521155721253e-13, 1.1200011711363185e-25, 3.196530138793297e-13, 3.5826521164310703e-13, 1.4203208271713143e-25, -3.1965301342654607e-13, -0.13875400753370193, 1.1851377046605426e-13, 53.46757469684133, 0.13875400774249808, -1.5674253833137816e-13, 16.532425303537018, 0.13875400373327562, 5.749528224099884e-13, -16.532425301659764, -0.13875400566548113, -4.730257506402985e-13, 16.53242530338958, -0.15577686144089065, 2.75225940664369e-13, 0.5415628930568586, 0.15577686316163647, -1.0785441684318886e-13, -0.5415628935580936, 0.15577685675309394, 3.0173195475379813e-13, 0.5415628929498568, -0.15577685784921852, -5.361296005434206e-13, -0.5415628944761128, 16.03226192292674, -5.409190975537985e-13, 0.13875400774249808, 53.96773807689039, 2.0739342324945595e-13, -0.13875400833550233, -16.032261917804615, -8.324960850653624e-14, 0.1387540052789325, 16.0322619205808, 2.213364676671165e-13, -0.13875400803000854, 0.8583860420211384, -2.4541335395487115e-13, 0.051089240240566235, -0.8583860447488018, 4.2725493885197344e-13, -0.051089239500924574, -0.85838603501516, -1.3524722313193832e-13, 0.05108924036065407, 0.8583860367225618, 1.6512598408274203e-13, -0.05108923794094441, -2.0739342314656082e-13, -8.279036513624941e-25, -1.5674253833137816e-13, 2.0739342324945595e-13, 70.0, 1.567425383965462e-13, 2.0739342355245185e-13, -1.574641336222521e-25, -1.567425382269768e-13, -2.0739342367331968e-13, 4.2345945820198075e-25, 1.5674253822465944e-13, -3.8665429258191064e-13, -5.4885610487715275e-25, -5.948606866495775e-15, 3.8665429260319883e-13, 6.292766484137876e-25, 5.948606959316456e-15, 3.866542929888941e-13, -3.0343485388768707e-25, -5.948606853514532e-15, -3.866542928600677e-13, 3.036846964824349e-25, 5.948606814844975e-15, 0.13875400812670535, -1.1851377054646264e-13, 16.532425303537018, -0.13875400833550233, 1.567425383965462e-13, 53.467574696084654, -0.138754004326281, -5.749528224124578e-13, 16.532425302038106, 0.1387540062584845, 4.730257506830605e-13, -16.532425303767926, 0.15577686211381447, -2.752259407288127e-13, -0.5415628929348757, -0.15577686383455996, 1.0785441690253847e-13, 0.5415628934361102, -0.15577685742601777, -3.017319547901112e-13, -0.5415628928278738, 0.15577685852214057, 5.361296005624397e-13, 0.5415628943541275, 16.03226191762175, -5.409190948886159e-13, 0.13875400373327562, -16.032261917804615, 2.0739342355245185e-13, -0.138754004326281, 53.96773808750038, -8.324960935629266e-14, 0.13875400126971188, 16.032261915275807, 2.213364690903207e-13, -0.1387540040207894, 0.8583860355907522, -2.454133543538022e-13, 0.0510892396440927, -0.8583860383184191, 4.272549366207854e-13, -0.05108923890445124, -0.8583860285847772, -1.3524722454601274e-13, 0.05108923976418142, 0.858386030292179, 1.6512598452757527e-13, -0.05108923734447043, 8.324960931920302e-14, -5.273668252711664e-25, 5.749528224099884e-13, -8.324960850653624e-14, -1.574641336222521e-25, -5.749528224124578e-13, -8.324960935629266e-14, 70.0, 5.749528224968207e-13, 8.32496087086684e-14, -1.05682911114449e-24, -5.749528223544039e-13, 1.1150919952017359e-13, 4.096274023454873e-25, -2.383584228629356e-13, -1.1150919956831304e-13, 4.08877391159192e-25, 2.383584229432613e-13, -1.1150919922030184e-13, 7.4276054828829675e-25, -2.3835842303145474e-13, 1.1150919927548141e-13, -1.2191510567499111e-24, 2.383584229684939e-13, -0.13875400507013513, 1.185137699996187e-13, -16.532425301659764, 0.1387540052789325, -1.567425382269768e-13, 16.532425302038106, 0.13875400126971188, 5.749528224968207e-13, 53.467574699839155, -0.13875400320191605, -4.730257506733463e-13, 16.532425301890665, -0.1557768586811354, 2.7522594056364274e-13, 0.5415628935511838, 0.15577686040188093, -1.0785441646661327e-13, -0.5415628940524164, 0.15577685399333907, 3.017319548107328e-13, 0.5415628934441803, -0.15577685508946465, -5.361296005550057e-13, -0.5415628949704377, -16.032261920397932, 5.409190961910895e-13, -0.13875400566548113, 16.0322619205808, -2.0739342367331968e-13, 0.1387540062584845, 16.032261915275807, 8.32496087086684e-14, -0.13875400320191605, 53.967738081948006, -2.2133646860338852e-13, 0.13875400595299303, -0.8583860387004888, 2.4541335439066356e-13, -0.051089240156172076, 0.8583860414281539, -4.2725493769026734e-13, 0.0510892394165297, 0.8583860316945111, 1.3524722409434812e-13, -0.05108924027625963, -0.8583860334019154, -1.6512598410083954e-13, 0.05108923785655133, -2.2133646817377202e-13, -1.6373279532242528e-25, -4.730257506402985e-13, 2.213364676671165e-13, 4.2345945820198075e-25, 4.730257506830605e-13, 2.213364690903207e-13, -1.05682911114449e-24, -4.730257506733463e-13, -2.2133646860338852e-13, 70.0, 4.730257504544703e-13, -2.9725656457393347e-13, -6.210877119702629e-25, 1.6725558161732338e-13, 2.972565645227294e-13, 1.1911335989547066e-25, -1.672555815462729e-13, 2.9725656519796975e-13, -6.934881468515175e-25, 1.6725558176905034e-13, -2.9725656506586955e-13, 1.016131474577358e-24, -1.6725558167120092e-13, 0.13875400782121206, -1.1851377064002634e-13, 16.53242530338958, -0.13875400803000854, 1.5674253822465944e-13, -16.532425303767926, -0.1387540040207894, -5.749528223544039e-13, 16.532425301890665, 0.13875400595299303, 4.730257504544703e-13, 53.46757469637951, 0.15577686177339867, -2.7522594055217813e-13, -0.5415628930291766, -0.15577686349414405, 1.0785441700395028e-13, 0.54156289353041, -0.15577685708560374, -3.0173195457043065e-13, -0.5415628929221729, 0.15577685818172882, 5.361296005008781e-13, 0.5415628944484313, -0.8583860418233452, 3.5826521275168637e-13, -0.15577686144089065, 0.8583860420211384, -3.8665429258191064e-13, 0.15577686211381447, 0.8583860355907522, 1.1150919952017359e-13, -0.1557768586811354, -0.8583860387004888, -2.9725656457393347e-13, 0.15577686177339867, 53.80893163463956, 3.949816475480299e-13, -0.3463747818349649, 16.19106836857052, -2.458878267366914e-13, 0.34637478101448016, 16.191068357024538, 2.520333429093132e-13, -0.34637478197508803, -16.19106835902518, -1.9818332290898725e-13, 0.34637477920132037, 2.454133539697836e-13, 7.674604095556468e-25, 2.75225940664369e-13, -2.4541335395487115e-13, -5.4885610487715275e-25, -2.752259407288127e-13, -2.454133543538022e-13, 4.096274023454873e-25, 2.7522594056364274e-13, 2.4541335439066356e-13, -6.210877119702629e-25, -2.7522594055217813e-13, 3.949816475480299e-13, 70.0, -2.1675360353249532e-14, -3.949816475811443e-13, -5.8267494046846915e-25, 2.1675360277943558e-14, -3.949816478799425e-13, 4.414009431005393e-25, -2.1675360391221535e-14, 3.9498164776490956e-13, -5.265332957725829e-25, 2.1675360428647368e-14, -0.05108924025881861, 3.196530136523784e-13, 0.5415628930568586, 0.051089240240566235, -5.948606866495775e-15, -0.5415628929348757, 0.0510892396440927, -2.383584228629356e-13, 0.5415628935511838, -0.051089240156172076, 1.6725558161732338e-13, -0.5415628930291766, -0.3463747818349649, -2.1675360353249532e-14, 53.114171720204624, 0.3463747822488723, -2.650825395099552e-13, 16.885828279644485, 0.346374780742265, -1.485296783515109e-13, -16.88582827978985, -0.3463747810340695, 1.8349365342076266e-13, 16.885828279342622, 0.8583860445510112, -3.5826521307537067e-13, 0.15577686316163647, -0.8583860447488018, 3.8665429260319883e-13, -0.15577686383455996, -0.8583860383184191, -1.1150919956831304e-13, 0.15577686040188093, 0.8583860414281539, 2.972565645227294e-13, -0.15577686349414405, 16.19106836857052, -3.949816475811443e-13, 0.3463747822488723, 53.80893162821942, 2.458878269815003e-13, -0.34637478142838507, -16.191068360234613, -2.520333428323124e-13, 0.34637478238899255, 16.191068362235264, 1.9818332302643932e-13, -0.34637477961522634, -4.272549380322342e-13, -1.4534265298467317e-24, -1.0785441684318886e-13, 4.2725493885197344e-13, 6.292766484137876e-25, 1.0785441690253847e-13, 4.272549366207854e-13, 4.08877391159192e-25, -1.0785441646661327e-13, -4.2725493769026734e-13, 1.1911335989547066e-25, 1.0785441700395028e-13, -2.458878267366914e-13, -5.8267494046846915e-25, -2.650825395099552e-13, 2.458878269815003e-13, 70.0, 2.650825394374055e-13, 2.458878257071902e-13, -7.992041280154459e-26, -2.6508253969918897e-13, -2.458878257882761e-13, -1.1383993532382618e-25, 2.650825393274539e-13, 0.0510892395191776, -3.1965301358733414e-13, -0.5415628935580936, -0.051089239500924574, 5.948606959316456e-15, 0.5415628934361102, -0.05108923890445124, 2.383584229432613e-13, -0.5415628940524164, 0.0510892394165297, -1.672555815462729e-13, 0.54156289353041, 0.34637478101448016, 2.1675360277943558e-14, 16.885828279644485, -0.34637478142838507, 2.650825394374055e-13, 53.1141717205064, -0.34637477992178023, 1.4852967825743648e-13, 16.885828279638964, 0.3463747802135832, -1.8349365348806408e-13, -16.885828279191735, 0.8583860348173695, -3.5826521155721253e-13, 0.15577685675309394, -0.85838603501516, 3.866542929888941e-13, -0.15577685742601777, -0.8583860285847772, -1.1150919922030184e-13, 0.15577685399333907, 0.8583860316945111, 2.9725656519796975e-13, -0.15577685708560374, 16.191068357024538, -3.949816478799425e-13, 0.346374780742265, -16.191068360234613, 2.458878257071902e-13, -0.34637477992178023, 53.808931651311376, -2.520333436647856e-13, 0.34637478088238605, 16.191068350689275, 1.9818332248620233e-13, -0.3463747781086187, 1.3524722354317522e-13, 1.1200011711363185e-25, 3.0173195475379813e-13, -1.3524722313193832e-13, -3.0343485388768707e-25, -3.017319547901112e-13, -1.3524722454601274e-13, 7.4276054828829675e-25, 3.017319548107328e-13, 1.3524722409434812e-13, -6.934881468515175e-25, -3.0173195457043065e-13, 2.520333429093132e-13, 4.414009431005393e-25, -1.485296783515109e-13, -2.520333428323124e-13, -7.992041280154459e-26, 1.4852967825743648e-13, -2.520333436647856e-13, 70.0, -1.4852967848200958e-13, 2.5203334351889213e-13, -7.150867996128524e-25, 1.485296783613277e-13, -0.051089240378908184, 3.196530138793297e-13, 0.5415628929498568, 0.05108924036065407, -5.948606853514532e-15, -0.5415628928278738, 0.05108923976418142, -2.3835842303145474e-13, 0.5415628934441803, -0.05108924027625963, 1.6725558176905034e-13, -0.5415628929221729, -0.34637478197508803, -2.1675360391221535e-14, -16.88582827978985, 0.34637478238899255, -2.6508253969918897e-13, 16.885828279638964, 0.34637478088238605, -1.4852967848200958e-13, 53.11417172021567, -0.34637478117418985, 1.8349365354915013e-13, 16.885828279337105, -0.8583860365247727, 3.5826521164310703e-13, -0.15577685784921852, 0.8583860367225618, -3.866542928600677e-13, 0.15577685852214057, 0.858386030292179, 1.1150919927548141e-13, -0.15577685508946465, -0.8583860334019154, -2.9725656506586955e-13, 0.15577685818172882, -16.19106835902518, 3.9498164776490956e-13, -0.3463747810340695, 16.191068362235264, -2.458878257882761e-13, 0.3463747802135832, 16.191068350689275, 2.5203334351889213e-13, -0.34637478117418985, 53.80893164731007, -1.9818332254477655e-13, 0.346374778400423, -1.6512598469922969e-13, 1.4203208271713143e-25, -5.361296005434206e-13, 1.6512598408274203e-13, 3.036846964824349e-25, 5.361296005624397e-13, 1.6512598452757527e-13, -1.2191510567499111e-24, -5.361296005550057e-13, -1.6512598410083954e-13, 1.016131474577358e-24, 5.361296005008781e-13, -1.9818332290898725e-13, -5.265332957725829e-25, 1.8349365342076266e-13, 1.9818332302643932e-13, -1.1383993532382618e-25, -1.8349365348806408e-13, 1.9818332248620233e-13, -7.150867996128524e-25, 1.8349365354915013e-13, -1.9818332254477655e-13, 70.0, -1.8349365355420768e-13, 0.05108923795919743, -3.1965301342654607e-13, -0.5415628944761128, -0.05108923794094441, 5.948606814844975e-15, 0.5415628943541275, -0.05108923734447043, 2.383584229684939e-13, -0.5415628949704377, 0.05108923785655133, -1.6725558167120092e-13, 0.5415628944484313, 0.34637477920132037, 2.1675360428647368e-14, 16.885828279342622, -0.34637477961522634, 2.650825393274539e-13, -16.885828279191735, -0.3463747781086187, 1.485296783613277e-13, 16.885828279337105, 0.346374778400423, -1.8349365355420768e-13, 53.114171721110125]]}, {"__ndarray__": [[24], "float64", [9.86441428023124, 3.1146320366116873, 0.14224494384770023, 1.6206266769684372, 1.0382106788705625, 4.206379088233459, 7.3631471555681784, 1.0382106788705625, 2.316556959888298, 4.121893801631467, 3.1146320366116873, 2.032067072192883, 1.367584444077795, 3.1146320366116873, 1.7548047286163002, 10.117456513121898, 1.0382106788705625, 2.593819303464849, 4.374936034522001, 1.0382106788705625, 3.9291167446568824, 7.110104922677655, 3.1146320366116873, 0.41950728742426563]]}, {"__ndarray__": [[24], "float64", [-0.00010508907369455187, 1.4481687716069827e-15, -0.00014098360033397146, 0.00010508907361976631, -1.3701869631567995e-15, 0.00014098360033076504, 0.00010508907447062012, -1.4055344793603562e-15, -0.00014098360036428467, -0.00010508907430900198, 1.3770882661318734e-15, 0.00014098360026180068, -0.00010243189085965346, 1.005031540027395e-15, 7.592318593464047e-06, 0.00010243189067371929, -1.0638334539999127e-15, -7.592318563912043e-06, 0.00010243189147318135, -1.0171485887540556e-15, 7.5923186437036854e-06, -0.00010243189137407508, 1.0218913813869623e-15, -7.5923185675698976e-06]]}, 0.2]