[{"__ndarray__": [[24, 24], "float64", [53.92071205670991, -1.786544168296096e-14, -0.19298635499218358, 16.07928794301116, -1.6739925784293225e-15, 0.19298635511514028, 16.07928794263082, 2.5034620747727687e-14, -0.1929863550477208, -16.079287942929035, -4.2477848825793406e-14, 0.1929863550472581, -0.7753573176290609, 2.6558666236061334e-15, -0.07626166529961052, 0.7753573180574908, 1.3524208168429026e-14, 0.07626166519109658, 0.7753573175639039, 4.457671168666136e-14, -0.07626166525829302, -0.7753573173597145, -2.381808507620211e-14, 0.07626166525398588, -1.786544168296096e-14, 70.0, 3.167021001228726e-14, 1.786544164415605e-14, 1.6291230292614345e-28, -3.167021000621203e-14, 1.7865441600195843e-14, -3.332285810160414e-27, 3.167021000900467e-14, -1.7865441628123766e-14, 4.730843587440758e-27, -3.1670210002039886e-14, 3.339124538786829e-14, -4.553585427638686e-28, 8.633694468325655e-15, -3.3391245357187074e-14, -3.9225419959739324e-27, -8.633694482424555e-15, -3.339124540278032e-14, -4.347564237208443e-27, 8.633694474408242e-15, 3.339124541281699e-14, 2.882660086267368e-27, -8.63369447380436e-15, -0.19298635499218358, 3.167021001228726e-14, 53.32870928354089, 0.19298635494352762, -4.2303919154119386e-15, 16.671290716450446, 0.19298635481568083, -1.665027005073131e-14, -16.671290716443313, -0.19298635492091487, 2.5541994277197286e-14, 16.67129071647693, -0.21757481745794904, 3.035912011772052e-15, 0.6520138176390362, 0.21757481756816874, -3.044923010134527e-14, -0.6520138177082718, 0.21757481753084115, -2.1248166081087265e-14, 0.6520138176843274, -0.21757481747634547, 1.2889715646772071e-14, -0.6520138176805704, 16.07928794301116, 1.786544164415605e-14, 0.19298635494352762, 53.92071205726775, 1.6739925879990004e-15, -0.19298635506648437, -16.079287942351897, -2.503462075974814e-14, 0.19298635499906636, 16.07928794265011, 4.2477848833103294e-14, -0.19298635499860342, 0.7753573183210376, -2.6558666318165156e-15, 0.07626166551454941, -0.7753573187494668, -1.3524208130854863e-14, -0.07626166540603499, -0.7753573182558812, -4.45767116964259e-14, 0.076261665473231, 0.7753573180516906, 2.3818085090439322e-14, -0.07626166546892368, -1.6739925784293225e-15, 1.6291230292614345e-28, -4.2303919154119386e-15, 1.6739925879990004e-15, 70.0, 4.23039191451455e-15, 1.6739925934038778e-15, -2.096768760256411e-28, -4.230391915787387e-15, -1.673992588119895e-15, 2.9272941054848543e-28, 4.2303919139479255e-15, 5.933967726048858e-15, -7.526904285614324e-29, -5.2073264030277294e-15, -5.933967731602893e-15, -1.2833611635394364e-28, 5.207326406700967e-15, -5.933967726921855e-15, -2.954625661173015e-28, -5.207326405202635e-15, 5.933967721613604e-15, 1.970939024153328e-28, 5.207326404553203e-15, 0.19298635511514028, -3.167021000621203e-14, 16.671290716450446, -0.19298635506648437, 4.23039191451455e-15, 53.328709283558204, -0.19298635493863694, 1.6650270049304973e-14, 16.671290716434637, 0.1929863550438708, -2.5541994277498697e-14, -16.671290716468253, 0.21757481724388888, -3.0359120100476643e-15, -0.6520138176021276, -0.21757481735410686, 3.0449230095793833e-14, 0.6520138176713641, -0.21757481731677814, 2.124816607997901e-14, -0.6520138176474235, 0.21757481726228167, -1.2889715645648837e-14, 0.6520138176436632, 16.07928794263082, 1.7865441600195843e-14, 0.19298635481568083, -16.079287942351897, 1.6739925934038778e-15, -0.19298635493863694, 53.92071205802848, -2.503462075761888e-14, 0.19298635487121854, 16.07928794226977, 4.247784883220131e-14, -0.19298635487075422, 0.7753573192765171, -2.655866642432665e-15, 0.07626166555894018, -0.7753573197049476, -1.3524208088321375e-14, -0.07626166545042651, -0.7753573192113601, -4.4576711691222805e-14, 0.07626166551762205, 0.7753573190071703, 2.3818085091556472e-14, -0.07626166551331495, 2.5034620747727687e-14, -3.332285810160414e-27, -1.665027005073131e-14, -2.503462075974814e-14, -2.096768760256411e-28, 1.6650270049304973e-14, -2.503462075761888e-14, 70.0, -1.665027004756486e-14, 2.5034620754748938e-14, -3.9789583302101e-27, 1.6650270050946722e-14, -3.667447600670179e-14, 4.39592309951316e-28, 1.6599780940308711e-15, 3.667447600808322e-14, 2.9627565026037672e-27, -1.6599780974138301e-15, 3.6674476012636377e-14, 3.7356184434367314e-27, 1.659978098320804e-15, -3.667447600921507e-14, -2.4308746347108415e-27, -1.6599780963345059e-15, -0.1929863550477208, 3.167021000900467e-14, -16.671290716443313, 0.19298635499906636, -4.230391915787387e-15, 16.671290716434637, 0.19298635487121854, -1.665027004756486e-14, 53.32870928357249, -0.192986354976452, 2.5541994273764072e-14, 16.67129071646112, -0.21757481740576323, 3.03591201036916e-15, 0.6520138175411281, 0.21757481751598423, -3.0449230098152944e-14, -0.6520138176103636, 0.21757481747865626, -2.1248166076640276e-14, 0.6520138175864193, -0.21757481742416027, 1.288971564443707e-14, -0.6520138175826611, -16.079287942929035, -1.7865441628123766e-14, -0.19298635492091487, 16.07928794265011, -1.673992588119895e-15, 0.1929863550438708, 16.07928794226977, 2.5034620754748938e-14, -0.192986354976452, 53.92071205743203, -4.247784883217337e-14, 0.1929863549759888, -0.7753573184293736, 2.6558666316515364e-15, -0.07626166536755918, 0.7753573188578046, 1.3524208115787347e-14, 0.07626166525904853, 0.7753573183642181, 4.457671169529957e-14, -0.07626166532624276, -0.7753573181600271, -2.3818085086389828e-14, 0.07626166532193553, -4.2477848825793406e-14, 4.730843587440758e-27, 2.5541994277197286e-14, 4.2477848833103294e-14, 2.9272941054848543e-28, -2.5541994277498697e-14, 4.247784883220131e-14, -3.9789583302101e-27, 2.5541994273764072e-14, -4.247784883217337e-14, 70.0, -2.554199427743117e-14, 5.109588832283293e-14, -6.007703157793472e-28, -2.269956025360595e-15, -5.1095888320490974e-14, -4.214303059731379e-27, 2.2699560299786497e-15, -5.1095888329511416e-14, -5.464720986379862e-27, -2.269956030011782e-15, 5.109588832677753e-14, 3.495393865859897e-27, 2.269956027397888e-15, 0.1929863550472581, -3.1670210002039886e-14, 16.67129071647693, -0.19298635499860342, 4.2303919139479255e-15, -16.671290716468253, -0.19298635487075422, 1.6650270050946722e-14, 16.67129071646112, 0.1929863549759888, -2.554199427743117e-14, 53.328709283505276, 0.21757481730862308, -3.0359120102818214e-15, -0.6520138176335657, -0.21757481741884405, 3.0449230091332756e-14, 0.6520138177027986, -0.2175748173815158, 2.124816608183178e-14, -0.652013817678858, 0.21757481732701983, -1.2889715647810288e-14, 0.6520138176750983, -0.7753573176290609, 3.339124538786829e-14, -0.21757481745794904, 0.7753573183210376, 5.933967726048858e-15, 0.21757481724388888, 0.7753573192765171, -3.667447600670179e-14, -0.21757481740576323, -0.7753573184293736, 5.109588832283293e-14, 0.21757481730862308, 53.66338319726937, -9.841003617774331e-15, -0.28440433302712925, 16.33661680166589, -2.6157170437228316e-14, 0.28440433339693816, 16.336616802718314, -5.195017655740937e-14, -0.2844043332399746, -16.336616803210152, 3.457185439413314e-14, 0.2844043332186973, 2.6558666236061334e-15, -4.553585427638686e-28, 3.035912011772052e-15, -2.6558666318165156e-15, -7.526904285614324e-29, -3.0359120100476643e-15, -2.655866642432665e-15, 4.39592309951316e-28, 3.03591201036916e-15, 2.6558666316515364e-15, -6.007703157793472e-28, -3.0359120102818214e-15, -9.841003617774331e-15, 70.0, 4.9757439510405485e-15, 9.841003631389648e-15, 3.8402846664315014e-28, -4.9757439537203445e-15, 9.841003617769535e-15, 5.831204490307183e-28, 4.975743952278387e-15, -9.84100361007123e-15, -4.006024710519591e-28, -4.9757439526622564e-15, -0.07626166529961052, 8.633694468325655e-15, 0.6520138176390362, 0.07626166551454941, -5.2073264030277294e-15, -0.6520138176021276, 0.07626166555894018, 1.6599780940308711e-15, 0.6520138175411281, -0.07626166536755918, -2.269956025360595e-15, -0.6520138176335657, -0.28440433302712925, 4.9757439510405485e-15, 53.16281993458393, 0.28440433272940135, -9.058436294408455e-15, 16.837180065599362, 0.28440433275689403, 4.184552918008213e-15, -16.837180065579755, -0.28440433294867884, -2.6843386185707174e-15, 16.83718006553177, 0.7753573180574908, -3.3391245357187074e-14, 0.21757481756816874, -0.7753573187494668, -5.933967731602893e-15, -0.21757481735410686, -0.7753573197049476, 3.667447600808322e-14, 0.21757481751598423, 0.7753573188578046, -5.1095888320490974e-14, -0.21757481741884405, 16.33661680166589, 9.841003631389648e-15, 0.28440433272940135, 53.66338319939886, 2.6157170407016486e-14, -0.28440433309921254, -16.33661680165357, 5.195017654874033e-14, 0.28440433294224665, 16.336616802145407, -3.4571854398391625e-14, -0.28440433292097195, 1.3524208168429026e-14, -3.9225419959739324e-27, -3.044923010134527e-14, -1.3524208130854863e-14, -1.2833611635394364e-28, 3.0449230095793833e-14, -1.3524208088321375e-14, 2.9627565026037672e-27, -3.0449230098152944e-14, 1.3524208115787347e-14, -4.214303059731379e-27, 3.0449230091332756e-14, -2.6157170437228316e-14, 3.8402846664315014e-28, -9.058436294408455e-15, 2.6157170407016486e-14, 70.0, 9.058436307380515e-15, 2.6157170451992103e-14, 3.8521086284238e-27, -9.058436300028751e-15, -2.6157170460634466e-14, -2.5507291802651394e-27, 9.058436299757044e-15, 0.07626166519109658, -8.633694482424555e-15, -0.6520138177082718, -0.07626166540603499, 5.207326406700967e-15, 0.6520138176713641, -0.07626166545042651, -1.6599780974138301e-15, -0.6520138176103636, 0.07626166525904853, 2.2699560299786497e-15, 0.6520138177027986, 0.28440433339693816, -4.9757439537203445e-15, 16.837180065599362, -0.28440433309921254, 9.058436307380515e-15, 53.16281993421736, -0.28440433312670343, -4.184552922650473e-15, 16.837180065763043, 0.28440433331848824, 2.6843386224424104e-15, -16.837180065715053, 0.7753573175639039, -3.339124540278032e-14, 0.21757481753084115, -0.7753573182558812, -5.933967726921855e-15, -0.21757481731677814, -0.7753573192113601, 3.6674476012636377e-14, 0.21757481747865626, 0.7753573183642181, -5.1095888329511416e-14, -0.2175748173815158, 16.336616802718314, 9.841003617769535e-15, 0.28440433275689403, -16.33661680165357, 2.6157170451992103e-14, -0.28440433312670343, 53.66338319729399, 5.195017656334322e-14, 0.28440433296973844, 16.33661680319783, -3.4571854398537697e-14, -0.2844043329484626, 4.457671168666136e-14, -4.347564237208443e-27, -2.1248166081087265e-14, -4.45767116964259e-14, -2.954625661173015e-28, 2.124816607997901e-14, -4.4576711691222805e-14, 3.7356184434367314e-27, -2.1248166076640276e-14, 4.457671169529957e-14, -5.464720986379862e-27, 2.124816608183178e-14, -5.195017655740937e-14, 5.831204490307183e-28, 4.184552918008213e-15, 5.195017654874033e-14, 3.8521086284238e-27, -4.184552922650473e-15, 5.195017656334322e-14, 70.0, 4.184552922530093e-15, -5.195017656393488e-14, -3.29698527954679e-27, -4.184552919832719e-15, -0.07626166525829302, 8.633694474408242e-15, 0.6520138176843274, 0.076261665473231, -5.207326405202635e-15, -0.6520138176474235, 0.07626166551762205, 1.659978098320804e-15, 0.6520138175864193, -0.07626166532624276, -2.269956030011782e-15, -0.652013817678858, -0.2844043332399746, 4.975743952278387e-15, -16.837180065579755, 0.28440433294224665, -9.058436300028751e-15, 16.837180065763043, 0.28440433296973844, 4.184552922530093e-15, 53.16281993425657, -0.2844043331615259, -2.6843386224932272e-15, 16.837180065695453, -0.7753573173597145, 3.339124541281699e-14, -0.21757481747634547, 0.7753573180516906, 5.933967721613604e-15, 0.21757481726228167, 0.7753573190071703, -3.667447600921507e-14, -0.21757481742416027, -0.7753573181600271, 5.109588832677753e-14, 0.21757481732701983, -16.336616803210152, -9.84100361007123e-15, -0.28440433294867884, 16.336616802145407, -2.6157170460634466e-14, 0.28440433331848824, 16.33661680319783, -5.195017656393488e-14, -0.2844043331615259, 53.66338319631034, 3.457185439407158e-14, 0.28440433314025027, -2.381808507620211e-14, 2.882660086267368e-27, 1.2889715646772071e-14, 2.3818085090439322e-14, 1.970939024153328e-28, -1.2889715645648837e-14, 2.3818085091556472e-14, -2.4308746347108415e-27, 1.288971564443707e-14, -2.3818085086389828e-14, 3.495393865859897e-27, -1.2889715647810288e-14, 3.457185439413314e-14, -4.006024710519591e-28, -2.6843386185707174e-15, -3.4571854398391625e-14, -2.5507291802651394e-27, 2.6843386224424104e-15, -3.4571854398537697e-14, -3.29698527954679e-27, -2.6843386224932272e-15, 3.457185439407158e-14, 70.0, 2.6843386210089097e-15, 0.07626166525398588, -8.63369447380436e-15, -0.6520138176805704, -0.07626166546892368, 5.207326404553203e-15, 0.6520138176436632, -0.07626166551331495, -1.6599780963345059e-15, -0.6520138175826611, 0.07626166532193553, 2.269956027397888e-15, 0.6520138176750983, 0.2844043332186973, -4.9757439526622564e-15, 16.83718006553177, -0.28440433292097195, 9.058436299757044e-15, -16.837180065715053, -0.2844043329484626, -4.184552919832719e-15, 16.837180065695453, 0.28440433314025027, 2.6843386210089097e-15, 53.16281993435253]]}, {"__ndarray__": [[24], "float64", [9.986252981063519, 3.1554076826096242, 0.14532293430426077, 1.6491460148508703, 1.0518025608698747, 4.260231724581591, 7.466845512808121, 1.0518025608698747, 2.3481002637471677, 4.168553483106281, 3.1554076826096242, 2.057454395138656, 1.411307715053585, 3.1554076826096242, 1.740034541937332, 10.224091280860504, 1.0518025608698747, 2.665520116948611, 4.406391782903466, 1.0518025608698747, 3.9428118713801963, 7.22900721301071, 3.1554076826096242, 0.4627427875056492]]}, {"__ndarray__": [[24], "float64", [-0.0003330357309936404, 1.1426399574652518e-15, 5.798619279911857e-06, 0.0003330357303063582, -1.1652553623514748e-15, -5.798619052000092e-06, 0.0003330357292235509, -1.0936532561178924e-15, 5.798619200543271e-06, -0.0003330357301856932, 1.062360269442085e-15, -5.798619132671998e-06, 0.0006853495553592812, 8.556519235210643e-16, -2.7229955954027668e-05, -0.0006853495542706155, -8.329305511483513e-16, 2.7229955624339676e-05, -0.0006853495553900469, -7.669789994940008e-16, -2.722995575205327e-05, 0.000685349555950795, 7.958575326296364e-16, 2.722995578595367e-05]]}, 0.2]