[{"__ndarray__": [[24, 24], "float64", [53.90553276752548, 3.969594854877246e-14, -0.14629424339312724, 16.09446723263398, -6.102459765299969e-16, 0.14629424346150455, 16.094467232536612, -4.766453743367587e-15, -0.14629424337959826, -16.094467232636582, -2.6290733416094582e-15, 0.14629424337998126, -0.714366403108325, -1.9718834693566644e-15, -0.0003915015143182293, 0.7143664032054317, -3.667178684814376e-14, 0.0003915014662200095, 0.7143664031037917, 6.152299739028371e-15, -0.0003915014673510492, -0.714366403238541, -2.570331232314547e-16, 0.0003915014554152496, 3.969594854877246e-14, 70.0, 2.6389198941915e-15, -3.9695948551172584e-14, 2.716320489765117e-29, -2.6389198948833877e-15, -3.969594855008232e-14, -1.1479590776714786e-28, 2.638919893869152e-15, 3.969594855141874e-14, -3.256970284515956e-28, -2.6389198942000595e-15, -4.4651075228519505e-14, -9.863512439514062e-29, 7.234749434103761e-15, 4.465107522697612e-14, -1.9166200099996804e-27, -7.234749433657294e-15, 4.4651075228579137e-14, 4.60831757616618e-28, 7.234749433893853e-15, -4.4651075225927346e-14, -1.631968359201156e-28, -7.234749433427704e-15, -0.14629424339312724, 2.6389198941915e-15, 53.34342778499807, 0.1462942434114365, -2.605485092462475e-15, 16.65657221499683, 0.14629424340844807, 9.20710971614257e-15, -16.65657221499524, -0.1462942433860811, -4.890328924809099e-15, 16.65657221499478, -0.18699227692497858, 2.703324203506846e-15, 0.6917609217824591, 0.18699227692224626, -4.724493704231492e-15, -0.6917609217883285, 0.1869922769288837, 5.017589778596351e-15, 0.6917609217827643, -0.18699227692070064, -7.318166299878067e-15, -0.6917609217813155, 16.09446723263398, -3.9695948551172584e-14, 0.1462942434114365, 53.90553276720654, 6.102459767701959e-16, -0.14629424347981435, -16.094467232696086, 4.766453742934239e-15, 0.14629424339790786, 16.094467232796053, 2.6290733423886568e-15, -0.1462942433982907, 0.7143664028805012, 1.9718834692893327e-15, 0.00039150149410144275, -0.7143664029776077, 3.667178685045388e-14, -0.0003915014459998367, -0.7143664028759686, -6.152299739954218e-15, 0.0003915014471329581, 0.7143664030107187, 2.570331237980138e-16, -0.0003915014351938556, -6.102459765299969e-16, 2.716320489765117e-29, -2.605485092462475e-15, 6.102459767701959e-16, 70.0, 2.6054850925984772e-15, 6.102459765791251e-16, -4.797720707578868e-29, -2.6054850924686745e-15, -6.10245976591545e-16, 4.276830635905593e-29, 2.605485092458306e-15, 8.647659582209199e-16, -5.824127495488768e-29, -4.5120456713826574e-15, -8.64765958263516e-16, -9.261748373011505e-30, 4.512045671285253e-15, -8.647659583685721e-16, -5.241016805060915e-29, -4.512045671302863e-15, 8.647659579423589e-16, 2.9976182337178656e-29, 4.5120456712877464e-15, 0.14629424346150455, -2.6389198948833877e-15, 16.65657221499683, -0.14629424347981435, 2.6054850925984772e-15, 53.34342778500826, -0.1462942434768252, -9.207109716007757e-15, 16.656572214990135, 0.14629424345445818, 4.890328924841918e-15, -16.65657221498968, 0.186992276825344, -2.7033242035738373e-15, -0.6917609217945747, -0.18699227682261077, 4.724493704841856e-15, 0.6917609218004453, -0.1869922768292499, -5.01758977866123e-15, -0.691760921794881, 0.18699227682106564, 7.318166299807005e-15, 0.6917609217934317, 16.094467232536612, -3.969594855008232e-14, 0.14629424340844807, -16.094467232696086, 6.102459765791251e-16, -0.1462942434768252, 53.905532767401276, 4.766453741088515e-15, 0.14629424339491895, 16.094467232698687, 2.629073343029248e-15, -0.14629424339530203, 0.7143664030394166, 1.971883469195243e-15, 0.00039150149861312544, -0.714366403136524, 3.667178684975856e-14, -0.0003915014505157799, -0.714366403034885, -6.152299740499241e-15, 0.0003915014516460563, 0.7143664031696333, 2.570331253693829e-16, -0.0003915014397097988, -4.766453743367587e-15, -1.1479590776714786e-28, 9.20710971614257e-15, 4.766453742934239e-15, -4.797720707578868e-29, -9.207109716007757e-15, 4.766453741088515e-15, 70.0, 9.207109716860885e-15, -4.766453743228654e-15, -4.669795370788927e-29, -9.207109716391945e-15, 5.046989170505357e-16, 5.180088323528258e-29, 7.973482311476581e-15, -5.046989140493614e-16, 7.856250695457701e-29, -7.973482311747616e-15, -5.046989170572288e-16, 4.104333256769616e-29, 7.973482311285874e-15, 5.046989155360593e-16, -7.525266300430507e-29, -7.97348231199724e-15, -0.14629424337959826, 2.638919893869152e-15, -16.65657221499524, 0.14629424339790786, -2.6054850924686745e-15, 16.656572214990135, 0.14629424339491895, 9.207109716860885e-15, 53.34342778501142, -0.14629424337255253, -4.8903289251906765e-15, 16.656572214988095, -0.18699227694730933, 2.7033242035997647e-15, 0.6917609217835071, 0.18699227694457632, -4.724493704030644e-15, -0.6917609217893769, 0.18699227695121562, 5.017589778972952e-15, 0.6917609217838113, -0.1869922769430329, -7.318166300535298e-15, -0.6917609217823625, -16.094467232636582, 3.969594855141874e-14, -0.1462942433860811, 16.094467232796053, -6.10245976591545e-16, 0.14629424345445818, 16.094467232698687, -4.766453743228654e-15, -0.14629424337255253, 53.90553276720134, -2.629073342221128e-15, 0.14629424337293567, -0.7143664028904332, -1.9718834694988392e-15, -0.00039150150330728717, 0.7143664029875398, -3.6671786850631217e-14, 0.0003915014552089563, 0.7143664028859007, 6.1522997398035376e-15, -0.0003915014563409397, -0.7143664030206489, -2.5703312357507935e-16, 0.00039150144440273926, -2.6290733416094582e-15, -3.256970284515956e-28, -4.890328924809099e-15, 2.6290733423886568e-15, 4.276830635905593e-29, 4.890328924841918e-15, 2.629073343029248e-15, -4.669795370788927e-29, -4.8903289251906765e-15, -2.629073342221128e-15, 70.0, 4.890328924937629e-15, 9.149266718256709e-15, -3.0937487949021697e-29, -6.430588439106065e-15, -9.14926671959025e-15, 3.1557502212080754e-28, 6.430588439183919e-15, -9.149266718247786e-15, -1.386541695650158e-28, -6.430588438947084e-15, 9.14926671878053e-15, 7.823238677781523e-29, 6.430588439302287e-15, 0.14629424337998126, -2.6389198942000595e-15, 16.65657221499478, -0.1462942433982907, 2.605485092458306e-15, -16.65657221498968, -0.14629424339530203, -9.207109716391945e-15, 16.656572214988095, 0.14629424337293567, 4.890328924937629e-15, 53.34342778501239, 0.18699227694959553, -2.7033242035349093e-15, -0.6917609217754398, -0.18699227694686335, 4.7244937042945214e-15, 0.6917609217813092, -0.1869922769535033, -5.0175897787083456e-15, -0.6917609217757451, 0.18699227694531842, 7.318166300080599e-15, 0.6917609217742955, -0.714366403108325, -4.4651075228519505e-14, -0.18699227692497858, 0.7143664028805012, 8.647659582209199e-16, 0.186992276825344, 0.7143664030394166, 5.046989170505357e-16, -0.18699227694730933, -0.7143664028904332, 9.149266718256709e-15, 0.18699227694959553, 53.5334357178446, 6.52389574338012e-16, -0.31631268974367255, 16.466564282048616, 4.16446889515653e-14, 0.31631268981699817, 16.466564282169827, -1.2096709995134531e-14, -0.31631268980821475, -16.466564281975554, 5.1537354990991035e-15, 0.3163126898255493, -1.9718834693566644e-15, -9.863512439514062e-29, 2.703324203506846e-15, 1.9718834692893327e-15, -5.824127495488768e-29, -2.7033242035738373e-15, 1.971883469195243e-15, 5.180088323528258e-29, 2.7033242035997647e-15, -1.9718834694988392e-15, -3.0937487949021697e-29, -2.7033242035349093e-15, 6.52389574338012e-16, 70.0, 3.9829051514492534e-15, -6.523895738444848e-16, 7.696599490908621e-29, -3.982905151417187e-15, -6.523895742170039e-16, 3.265972882599946e-29, 3.982905151355591e-15, 6.523895742861428e-16, -2.612684464218671e-29, -3.982905151461053e-15, -0.0003915015143182293, 7.234749434103761e-15, 0.6917609217824591, 0.00039150149410144275, -4.5120456713826574e-15, -0.6917609217945747, 0.00039150149861312544, 7.973482311476581e-15, 0.6917609217835071, -0.00039150150330728717, -6.430588439106065e-15, -0.6917609217754398, -0.31631268974367255, 3.9829051514492534e-15, 53.184449503043574, 0.3163126897185888, -8.860531060055233e-15, 16.815550496958718, 0.3163126897271482, 7.280977887340632e-15, -16.815550496950948, -0.31631268974346666, -6.877756125340186e-15, 16.815550496960245, 0.7143664032054317, 4.465107522697612e-14, 0.18699227692224626, -0.7143664029776077, -8.64765958263516e-16, -0.18699227682261077, -0.714366403136524, -5.046989140493614e-16, 0.18699227694457632, 0.7143664029875398, -9.14926671959025e-15, -0.18699227694686335, 16.466564282048616, -6.523895738444848e-16, 0.3163126897185888, 53.53343571805817, -4.164468895055087e-14, -0.3163126897919146, -16.466564282063036, 1.2096709996310164e-14, 0.31631268978312815, 16.466564281868763, -5.153735501755987e-15, -0.31631268980046545, -3.667178684814376e-14, -1.9166200099996804e-27, -4.724493704231492e-15, 3.667178685045388e-14, -9.261748373011505e-30, 4.724493704841856e-15, 3.667178684975856e-14, 7.856250695457701e-29, -4.724493704030644e-15, -3.6671786850631217e-14, 3.1557502212080754e-28, 4.7244937042945214e-15, 4.16446889515653e-14, 7.696599490908621e-29, -8.860531060055233e-15, -4.164468895055087e-14, 70.0, 8.860531059698146e-15, -4.164468895164407e-14, -4.421903921435951e-28, -8.860531059878107e-15, 4.164468894938854e-14, 1.7057878212983082e-28, 8.86053105952304e-15, 0.0003915014662200095, -7.234749433657294e-15, -0.6917609217883285, -0.0003915014459998367, 4.512045671285253e-15, 0.6917609218004453, -0.0003915014505157799, -7.973482311747616e-15, -0.6917609217893769, 0.0003915014552089563, 6.430588439183919e-15, 0.6917609217813092, 0.31631268981699817, -3.982905151417187e-15, 16.815550496958718, -0.3163126897919146, 8.860531059698146e-15, 53.184449503038984, -0.31631268980047417, -7.28097788737438e-15, 16.81555049695323, 0.31631268981679206, 6.877756125523908e-15, -16.815550496962526, 0.7143664031037917, 4.4651075228579137e-14, 0.1869922769288837, -0.7143664028759686, -8.647659583685721e-16, -0.1869922768292499, -0.714366403034885, -5.046989170572288e-16, 0.18699227695121562, 0.7143664028859007, -9.149266718247786e-15, -0.1869922769535033, 16.466564282169827, -6.523895742170039e-16, 0.3163126897271482, -16.466564282063036, -4.164468895164407e-14, -0.31631268980047417, 53.53343571781575, 1.209670999512393e-14, 0.31631268979168803, 16.46656428198997, -5.153735499040497e-15, -0.31631268980902494, 6.152299739028371e-15, 4.60831757616618e-28, 5.017589778596351e-15, -6.152299739954218e-15, -5.241016805060915e-29, -5.01758977866123e-15, -6.152299740499241e-15, 4.104333256769616e-29, 5.017589778972952e-15, 6.1522997398035376e-15, -1.386541695650158e-28, -5.0175897787083456e-15, -1.2096709995134531e-14, 3.265972882599946e-29, 7.280977887340632e-15, 1.2096709996310164e-14, -4.421903921435951e-28, -7.28097788737438e-15, 1.209670999512393e-14, 70.0, 7.280977887149703e-15, -1.2096709995485153e-14, -8.873914272325515e-29, -7.28097788748501e-15, -0.0003915014673510492, 7.234749433893853e-15, 0.6917609217827643, 0.0003915014471329581, -4.512045671302863e-15, -0.691760921794881, 0.0003915014516460563, 7.973482311285874e-15, 0.6917609217838113, -0.0003915014563409397, -6.430588438947084e-15, -0.6917609217757451, -0.31631268980821475, 3.982905151355591e-15, -16.815550496950948, 0.31631268978312815, -8.860531059878107e-15, 16.81555049695323, 0.31631268979168803, 7.280977887149703e-15, 53.18444950305456, -0.3163126898080082, -6.877756125064816e-15, 16.81555049695475, -0.714366403238541, -4.4651075225927346e-14, -0.18699227692070064, 0.7143664030107187, 8.647659579423589e-16, 0.18699227682106564, 0.7143664031696333, 5.046989155360593e-16, -0.1869922769430329, -0.7143664030206489, 9.14926671878053e-15, 0.18699227694531842, -16.466564281975554, 6.523895742861428e-16, -0.31631268974346666, 16.466564281868763, 4.164468894938854e-14, 0.31631268981679206, 16.46656428198997, -1.2096709995485153e-14, -0.3163126898080082, 53.53343571820431, 5.153735500257025e-15, 0.3163126898253453, -2.570331232314547e-16, -1.631968359201156e-28, -7.318166299878067e-15, 2.570331237980138e-16, 2.9976182337178656e-29, 7.318166299807005e-15, 2.570331253693829e-16, -7.525266300430507e-29, -7.318166300535298e-15, -2.5703312357507935e-16, 7.823238677781523e-29, 7.318166300080599e-15, 5.1537354990991035e-15, -2.612684464218671e-29, -6.877756125340186e-15, -5.153735501755987e-15, 1.7057878212983082e-28, 6.877756125523908e-15, -5.153735499040497e-15, -8.873914272325515e-29, -6.877756125064816e-15, 5.153735500257025e-15, 70.0, 6.877756125741957e-15, 0.0003915014554152496, -7.234749433427704e-15, -0.6917609217813155, -0.0003915014351938556, 4.5120456712877464e-15, 0.6917609217934317, -0.0003915014397097988, -7.97348231199724e-15, -0.6917609217823625, 0.00039150144440273926, 6.430588439302287e-15, 0.6917609217742955, 0.3163126898255493, -3.982905151461053e-15, 16.815550496960245, -0.31631268980046545, 8.86053105952304e-15, -16.815550496962526, -0.31631268980902494, -7.28097788748501e-15, 16.81555049695475, 0.3163126898253453, 6.877756125741957e-15, 53.18444950303595]]}, {"__ndarray__": [[24], "float64", [10.02947982569226, 3.167954035224375, 0.17432598364113724, 1.652183182134045, 1.055984678408125, 4.248745791184583, 7.493014686047332, 1.055984678408125, 2.3858618710540007, 4.188648321779109, 3.167954035224375, 2.03720990377178, 1.4321266997066344, 3.167954035224375, 1.7064296948464905, 10.249536308119728, 1.055984678408125, 2.71664207997931, 4.408704804206549, 1.055984678408125, 3.9179655822593586, 7.272958203619909, 3.167954035224375, 0.5051061925664247]]}, {"__ndarray__": [[24], "float64", [-0.0007639754014252541, 1.181341186848249e-15, -7.20528503628245e-05, 0.0007639754019918514, -1.1907099292029933e-15, 7.205285060739493e-05, 0.000763975401576838, -1.085768932225845e-15, -7.205285030341705e-05, -0.00076397540193941, 1.0523654367180146e-15, 7.205285029133839e-05, 0.0011385401214658482, 9.077839947562674e-16, 7.786539857021046e-05, -0.0011385401211469915, -9.239511944324956e-16, -7.78653987755628e-05, -0.0011385401215181338, -7.658765897862889e-16, 7.786539875636721e-05, 0.0011385401209952572, 8.176940320639057e-16, -7.786539878350582e-05]]}, 0.2]