[{"__ndarray__": [[24, 24], "float64", [53.84594562033766, 4.9592748133856346e-15, -0.1537183138621085, 16.154054379577673, -8.66352387624214e-15, 0.15371831388709084, 16.15405437950798, 6.451924307487075e-15, -0.15371831397917401, -16.154054379512843, -3.5763323617201576e-15, 0.15371831389036014, -0.7211453274161772, 1.0003113278375471e-14, -0.015451124146147077, 0.7211453274232145, -3.0656285019786114e-15, 0.015451124099355923, 0.7211453273957642, 2.146905476369641e-15, -0.015451124113567388, -0.7211453272990797, -7.925713757239559e-15, 0.015451124187355308, 4.9592748133856346e-15, 70.0, 9.609485125707208e-16, -4.959274813803308e-15, -1.2342999688222316e-28, -9.60948513062471e-16, -4.95927481303791e-15, 1.4636263594313067e-28, 9.609485127875138e-16, 4.959274813168636e-15, -1.5338700804179413e-28, -9.609485126328468e-16, -1.1149661368777148e-14, 1.7095161532468616e-28, 3.1193657838587415e-15, 1.1149661369262325e-14, -6.688020405267843e-29, -3.1193657834676953e-15, 1.1149661369225163e-14, 1.163245282195997e-28, 3.1193657833629527e-15, -1.1149661368779618e-14, -2.037236370414025e-28, -3.1193657836572917e-15, -0.1537183138621085, 9.609485125707208e-16, 53.31654277126689, 0.15371831389159937, -1.7120965354701562e-15, 16.68345722874144, 0.15371831385094462, -1.4106634180027076e-15, -16.683457228745198, -0.15371831387665308, -6.729350192344742e-16, 16.683457228754637, -0.20539919924785316, 1.979836215910959e-15, 0.6349722776212842, 0.20539919922449984, -8.830106024905333e-16, -0.6349722776214911, 0.20539919925127767, 6.326973902735831e-16, 0.6349722776397408, -0.2053991992195657, 1.6267377449735748e-15, -0.6349722776072405, 16.154054379577673, -4.959274813803308e-15, 0.15371831389159937, 53.845945620506996, 8.663523875319755e-15, -0.1537183139165808, -16.154054379423307, -6.451924306554218e-15, 0.1537183140086639, 16.154054379428175, 3.576332360566742e-15, -0.15371831391985086, 0.721145327750117, -1.0003113277368702e-14, 0.015451124160608287, -0.7211453277571533, 3.0656285027826074e-15, -0.015451124113816023, -0.7211453277297074, -2.146905475230256e-15, 0.01545112412803043, 0.7211453276330196, 7.925713755993936e-15, -0.01545112420181366, -8.66352387624214e-15, -1.2342999688222316e-28, -1.7120965354701562e-15, 8.663523875319755e-15, 70.0, 1.7120965356038661e-15, 8.663523875029052e-15, -1.34389249796666e-28, -1.7120965363930913e-15, -8.663523875199683e-15, 1.308690635607936e-28, 1.7120965357767795e-15, 1.1612995700605253e-14, -1.7710536860537658e-28, -4.060436464997985e-15, -1.1612995700055275e-14, 6.710262547721815e-29, 4.060436464918065e-15, -1.1612995700786929e-14, -9.688715875100492e-29, -4.06043646522322e-15, 1.1612995701638596e-14, 1.8335915521618978e-28, 4.0604364656124906e-15, 0.15371831388709084, -9.60948513062471e-16, 16.68345722874144, -0.1537183139165808, 1.7120965356038661e-15, 53.316542771250255, -0.15371831387592727, 1.4106634168618294e-15, 16.683457228753515, 0.15371831390163557, 6.729350201091366e-16, -16.68345722876296, 0.20539919908523535, -1.9798362161196407e-15, -0.6349722776230592, -0.2053991990618822, 8.830106025983027e-16, 0.6349722776232677, -0.205399199088659, -6.32697391091691e-16, -0.6349722776415172, 0.20539919905694737, -1.6267377436159397e-15, 0.6349722776090155, 16.15405437950798, -4.95927481303791e-15, 0.15371831385094462, -16.154054379423307, 8.663523875029052e-15, -0.15371831387592727, 53.84594562064639, -6.451924304633434e-15, 0.15371831396800922, 16.154054379358477, 3.576332359509625e-15, -0.15371831387919627, 0.7211453278064396, -1.0003113276817831e-14, 0.015451124085391038, -0.7211453278134775, 3.065628502486954e-15, -0.015451124038597469, -0.7211453277860286, -2.146905474403442e-15, 0.015451124052812654, 0.7211453276893408, 7.925713753811827e-15, -0.015451124126598076, 6.451924307487075e-15, 1.4636263594313067e-28, -1.4106634180027076e-15, -6.451924306554218e-15, -1.34389249796666e-28, 1.4106634168618294e-15, -6.451924304633434e-15, 70.0, -1.410663415890481e-15, 6.451924305034639e-15, -1.7538713808462393e-28, 1.4106634178615256e-15, -1.2357245569264434e-14, 1.8749166042506086e-28, 1.1286336917648054e-15, 1.2357245569144104e-14, -7.197041158951534e-29, -1.1286336911443481e-15, 1.2357245570717746e-14, 1.329215362532262e-28, 1.1286336910816085e-15, -1.2357245571856634e-14, -2.391766857409284e-28, -1.1286336927477931e-15, -0.15371831397917401, 9.609485127875138e-16, -16.683457228745198, 0.1537183140086639, -1.7120965363930913e-15, 16.683457228753515, 0.15371831396800922, -1.410663415890481e-15, 53.31654277124273, -0.153718313993718, -6.729350210769773e-16, 16.68345722876671, -0.205399198823648, 1.9798362170682932e-15, 0.634972277584855, 0.2053991988002963, -8.830106019113499e-16, -0.6349722775850644, 0.20539919882707305, 6.326973919378077e-16, 0.6349722776033131, -0.20539919879536025, 1.6267377422084746e-15, -0.634972277570813, -16.154054379512843, 4.959274813168636e-15, -0.15371831387665308, 16.154054379428175, -8.663523875199683e-15, 0.15371831390163557, 16.154054379358477, 6.451924305034639e-15, -0.153718313993718, 53.84594562063666, -3.576332359845889e-15, 0.15371831390490404, -0.7211453277649156, 1.0003113277045099e-14, -0.015451124120837434, 0.7211453277719567, -3.065628502466466e-15, 0.015451124074046335, 0.7211453277445052, 2.146905474703038e-15, -0.015451124088258023, -0.721145327647819, -7.925713754370398e-15, 0.015451124162046581, -3.5763323617201576e-15, -1.5338700804179413e-28, -6.729350192344742e-16, 3.576332360566742e-15, 1.308690635607936e-28, 6.729350201091366e-16, 3.576332359509625e-15, -1.7538713808462393e-28, -6.729350210769773e-16, -3.576332359845889e-15, 70.0, 6.729350195761481e-16, 1.2722768873846356e-14, -1.8754045348611214e-28, -2.275122870665103e-15, -1.272276887372305e-14, 7.333578517196413e-29, 2.2751228701501566e-15, -1.2722768874748272e-14, -1.4794896827734397e-28, -2.2751228702586995e-15, 1.2722768875768424e-14, 2.467200966599914e-28, 2.2751228714700143e-15, 0.15371831389036014, -9.609485126328468e-16, 16.683457228754637, -0.15371831391985086, 1.7120965357767795e-15, -16.68345722876296, -0.15371831387919627, 1.4106634178615256e-15, 16.68345722876671, 0.15371831390490404, 6.729350195761481e-16, 53.31654277122384, 0.20539919922539482, -1.97983621625862e-15, -0.6349722776124718, -0.20539919920204064, 8.830106024210754e-16, 0.6349722776126823, -0.2053991992288202, -6.326973905968999e-16, -0.634972277630929, 0.20539919919710542, -1.6267377447165793e-15, 0.6349722775984279, -0.7211453274161772, -1.1149661368777148e-14, -0.20539919924785316, 0.721145327750117, 1.1612995700605253e-14, 0.20539919908523535, 0.7211453278064396, -1.2357245569264434e-14, -0.205399198823648, -0.7211453277649156, 1.2722768873846356e-14, 0.20539919922539482, 53.58805845823641, -1.5502810159984872e-14, -0.3055948587495979, 16.41194154169659, 5.744859073653513e-15, 0.3055948588271875, 16.41194154188692, -9.56241056987143e-15, -0.305594858828747, -16.411941542161117, 1.700510745266265e-14, 0.305594858509266, 1.0003113278375471e-14, 1.7095161532468616e-28, 1.979836215910959e-15, -1.0003113277368702e-14, -1.7710536860537658e-28, -1.9798362161196407e-15, -1.0003113276817831e-14, 1.8749166042506086e-28, 1.9798362170682932e-15, 1.0003113277045099e-14, -1.8754045348611214e-28, -1.97983621625862e-15, -1.5502810159984872e-14, 70.0, 5.1006626439781615e-15, 1.5502810159442593e-14, -9.090261650928769e-29, -5.100662643832056e-15, 1.550281016038774e-14, 1.4010249596101315e-28, 5.100662644169897e-15, -1.5502810161415597e-14, -2.576703741573704e-28, -5.100662644718385e-15, -0.015451124146147077, 3.1193657838587415e-15, 0.6349722776212842, 0.015451124160608287, -4.060436464997985e-15, -0.6349722776230592, 0.015451124085391038, 1.1286336917648054e-15, 0.634972277584855, -0.015451124120837434, -2.275122870665103e-15, -0.6349722776124718, -0.3055948587495979, 5.1006626439781615e-15, 53.15747554185097, 0.30559485870634256, -2.2716805544896557e-15, 16.842524458119428, 0.3055948587289129, 1.6968078986988501e-15, -16.84252445813161, -0.3055948586813776, -1.7258407408671643e-15, 16.84252445814069, 0.7211453274232145, 1.1149661369262325e-14, 0.20539919922449984, -0.7211453277571533, -1.1612995700055275e-14, -0.2053991990618822, -0.7211453278134775, 1.2357245569144104e-14, 0.2053991988002963, 0.7211453277719567, -1.272276887372305e-14, -0.20539919920204064, 16.41194154169659, 1.5502810159442593e-14, 0.30559485870634256, 53.58805845837044, -5.744859074058195e-15, -0.3055948587839325, -16.4119415418199, 9.562410569776191e-15, 0.3055948587854917, 16.4119415420941, -1.700510745273374e-14, -0.30559485846600765, -3.0656285019786114e-15, -6.688020405267843e-29, -8.830106024905333e-16, 3.0656285027826074e-15, 6.710262547721815e-29, 8.830106025983027e-16, 3.065628502486954e-15, -7.197041158951534e-29, -8.830106019113499e-16, -3.065628502466466e-15, 7.333578517196413e-29, 8.830106024210754e-16, 5.744859073653513e-15, -9.090261650928769e-29, -2.2716805544896557e-15, -5.744859074058195e-15, 70.0, 2.2716805543248678e-15, -5.744859073760833e-15, -5.500306803297025e-29, -2.2716805542212702e-15, 5.74485907287077e-15, 9.949822178542278e-29, 2.2716805539360138e-15, 0.015451124099355923, -3.1193657834676953e-15, -0.6349722776214911, -0.015451124113816023, 4.060436464918065e-15, 0.6349722776232677, -0.015451124038597469, -1.1286336911443481e-15, -0.6349722775850644, 0.015451124074046335, 2.2751228701501566e-15, 0.6349722776126823, 0.3055948588271875, -5.100662643832056e-15, 16.842524458119428, -0.3055948587839325, 2.2716805543248678e-15, 53.157475541910195, -0.30559485880650067, -1.6968078982259225e-15, 16.842524458101995, 0.3055948587589661, 1.725840740103528e-15, -16.842524458111082, 0.7211453273957642, 1.1149661369225163e-14, 0.20539919925127767, -0.7211453277297074, -1.1612995700786929e-14, -0.205399199088659, -0.7211453277860286, 1.2357245570717746e-14, 0.20539919882707305, 0.7211453277445052, -1.2722768874748272e-14, -0.2053991992288202, 16.41194154188692, 1.550281016038774e-14, 0.3055948587289129, -16.4119415418199, -5.744859073760833e-15, -0.30559485880650067, 53.588058457989774, 9.562410570593115e-15, 0.30559485880806003, 16.41194154228443, -1.700510745431587e-14, -0.3055948584885763, 2.146905476369641e-15, 1.163245282195997e-28, 6.326973902735831e-16, -2.146905475230256e-15, -9.688715875100492e-29, -6.32697391091691e-16, -2.146905474403442e-15, 1.329215362532262e-28, 6.326973919378077e-16, 2.146905474703038e-15, -1.4794896827734397e-28, -6.326973905968999e-16, -9.56241056987143e-15, 1.4010249596101315e-28, 1.6968078986988501e-15, 9.562410569776191e-15, -5.500306803297025e-29, -1.6968078982259225e-15, 9.562410570593115e-15, 70.0, 1.6968078982998182e-15, -9.562410571501651e-15, -1.8759237636314734e-28, -1.696807899404958e-15, -0.015451124113567388, 3.1193657833629527e-15, 0.6349722776397408, 0.01545112412803043, -4.06043646522322e-15, -0.6349722776415172, 0.015451124052812654, 1.1286336910816085e-15, 0.6349722776033131, -0.015451124088258023, -2.2751228702586995e-15, -0.634972277630929, -0.305594858828747, 5.100662644169897e-15, -16.84252445813161, 0.3055948587854917, -2.2716805542212702e-15, 16.842524458101995, 0.30559485880806003, 1.6968078982998182e-15, 53.157475541885816, -0.3055948587605248, -1.7258407400063917e-15, 16.84252445812326, -0.7211453272990797, -1.1149661368779618e-14, -0.2053991992195657, 0.7211453276330196, 1.1612995701638596e-14, 0.20539919905694737, 0.7211453276893408, -1.2357245571856634e-14, -0.20539919879536025, -0.721145327647819, 1.2722768875768424e-14, 0.20539919919710542, -16.411941542161117, -1.5502810161415597e-14, -0.3055948586813776, 16.4119415420941, 5.74485907287077e-15, 0.3055948587589661, 16.41194154228443, -9.562410571501651e-15, -0.3055948587605248, 53.58805845744139, 1.700510745589937e-14, 0.3055948584410442, -7.925713757239559e-15, -2.037236370414025e-28, 1.6267377449735748e-15, 7.925713755993936e-15, 1.8335915521618978e-28, -1.6267377436159397e-15, 7.925713753811827e-15, -2.391766857409284e-28, 1.6267377422084746e-15, -7.925713754370398e-15, 2.467200966599914e-28, -1.6267377447165793e-15, 1.700510745266265e-14, -2.576703741573704e-28, -1.7258407408671643e-15, -1.700510745273374e-14, 9.949822178542278e-29, 1.725840740103528e-15, -1.700510745431587e-14, -1.8759237636314734e-28, -1.7258407400063917e-15, 1.700510745589937e-14, 70.0, 1.7258407421747573e-15, 0.015451124187355308, -3.1193657836572917e-15, -0.6349722776072405, -0.01545112420181366, 4.0604364656124906e-15, 0.6349722776090155, -0.015451124126598076, -1.1286336927477931e-15, -0.634972277570813, 0.015451124162046581, 2.2751228714700143e-15, 0.6349722775984279, 0.305594858509266, -5.100662644718385e-15, 16.84252445814069, -0.30559485846600765, 2.2716805539360138e-15, -16.842524458111082, -0.3055948584885763, -1.696807899404958e-15, 16.84252445812326, 0.3055948584410442, 1.7258407421747573e-15, 53.15747554186767]]}, {"__ndarray__": [[24], "float64", [9.9927549177761, 3.1585442707633127, 0.14635088628616955, 1.6542100811162521, 1.0528480902544377, 4.263583051584639, 7.477692580562406, 1.0528480902544377, 2.3513178552216174, 4.169272418329914, 3.1585442707633127, 2.0586160826492343, 1.410747783444, 3.1585442707633127, 1.731047391893195, 10.236217215448308, 1.0528480902544377, 2.6788865459776314, 4.412734716002162, 1.0528480902544377, 3.936014360828602, 7.23423028289014, 3.1585442707633127, 0.4739195770421867]]}, {"__ndarray__": [[24], "float64", [-3.239878473416209e-05, 6.999294016966575e-18, -1.2984244636418067e-06, 3.239878454840508e-05, -1.5714297309752576e-17, 1.298424549523087e-06, 3.23987844908591e-05, 9.550271254076794e-18, -1.298424683300191e-06, -3.239878449995252e-05, 9.006884777606756e-19, 1.2984244928131335e-06, 0.000198019565650884, 1.6291508330731644e-17, 6.894158798852776e-06, -0.00019801956562680214, -6.3195974994358754e-18, -6.894158859882516e-06, -0.00019801956571455356, -5.855651654358753e-19, 6.894158847404325e-06, 0.00019801956588531887, -8.760975610217051e-18, -6.894158681768265e-06]]}, 0.2]