[{"__ndarray__": [[24, 24], "float64", [53.91773603801783, -1.0602717645510702e-13, -0.14614256241873896, 16.082263954378192, -1.1545606107246584e-13, 0.14614255978537327, 16.082263954494554, -3.1577389163151884e-14, -0.1461425619617882, -16.082263952978607, 6.593091287197725e-14, 0.146142559990954, -0.8481993056384645, 1.2060373114203722e-13, -0.03281144372263808, 0.8481993048571289, 8.142774651650137e-14, 0.03281144643588272, 0.8481993020954002, -7.039151585649994e-14, -0.0328114437629188, -0.8481992965405046, 6.105748375394372e-14, 0.03281144519608987, -1.0602717645510702e-13, 70.0, -1.8537100515930392e-13, 1.0602717469449771e-13, -3.38747288839255e-26, 1.8537100508822334e-13, 1.0602717376521644e-13, -4.187734370911087e-27, -1.8537100515006236e-13, -1.0602717348065096e-13, -1.0221977158829252e-25, 1.8537100508535618e-13, 7.528131754189253e-14, 2.1719402266689393e-26, -1.1327804763388604e-15, -7.528131780267788e-14, -6.05793158318591e-26, 1.1327805488327037e-15, -7.528131899190859e-14, 8.8478679168918e-26, -1.1327804846722734e-15, 7.528132035333206e-14, -1.7030721497391588e-26, 1.1327806765726472e-15, -0.14614256241873896, -1.8537100515930392e-13, 53.43540295367722, 0.14614255742061844, 1.509922606040633e-14, 16.56459704462865, 0.14614255722979103, -1.2854090302904006e-14, -16.564597046080387, -0.14614255628799772, 1.7396631115997004e-13, 16.56459704483646, -0.26074249222772683, 2.0595155482910307e-15, 0.5698339137017707, 0.2607424914999982, 1.1974311672112274e-13, -0.5698339120101101, 0.26074248955864776, -1.452206314160127e-13, 0.569833913654527, -0.2607424861065386, 4.316123805014064e-14, -0.5698339127241502, 16.082263954378192, 1.0602717469449771e-13, 0.14614255742061844, 53.917736053225795, 1.154560558405106e-13, -0.14614255478725358, -16.082263946890574, 3.1577389041770557e-14, 0.14614255696366685, 16.082263945374628, -6.593091036565291e-14, -0.14614255499283435, 0.8481992971752064, -1.206037260259837e-13, 0.03281144240696229, -0.8481992963938725, -8.142774496607707e-14, -0.032811445120206034, -0.8481992936321436, 7.039151327998339e-14, 0.032811442447242434, 0.8481992880772455, -6.105748322807148e-14, -0.032811443880414584, -1.1545606107246584e-13, -3.38747288839255e-26, 1.509922606040633e-14, 1.154560558405106e-13, 70.0, -1.5099225915623874e-14, 1.1545605126581861e-13, 3.125207882196514e-26, 1.509922580864464e-14, -1.1545605021835441e-13, 2.7265780670044753e-27, -1.509922597611398e-14, -1.3531848787014405e-14, -6.391519787805221e-26, -9.087015556474095e-14, 1.3531848586853307e-14, 1.5553885840567763e-26, 9.087015590450392e-14, 1.353184253543683e-14, 5.758054948515348e-27, -9.087015578464572e-14, -1.35318379531478e-14, -2.9253738549270397e-26, 9.087015637834553e-14, 0.14614255978537327, 1.8537100508822334e-13, 16.56459704462865, -0.14614255478725358, -1.5099225915623874e-14, 53.43540295706544, -0.1461425545964254, 1.2854090129567616e-14, 16.564597044386282, 0.14614255365463474, -1.7396631065672495e-13, -16.564597043142356, 0.2607424893168826, -2.059515613087182e-15, -0.5698339141796723, -0.26074248858915045, -1.1974311683923756e-13, 0.5698339124880106, -0.2607424866478036, 1.4522063082216185e-13, -0.5698339141324243, 0.26074248319569215, -4.3161237678336886e-14, 0.5698339132020506, 16.082263954494554, 1.0602717376521644e-13, 0.14614255722979103, -16.082263946890574, 1.1545605126581861e-13, -0.1461425545964254, 53.917736052993064, 3.157738904853619e-14, 0.14614255677284027, 16.082263945490997, -6.593090948607235e-14, -0.14614255480200666, 0.8481992968992385, -1.2060372174833155e-13, 0.03281144276947146, -0.8481992961179058, -8.142774372771832e-14, -0.0328114454827167, -0.8481992933561759, 7.039151245741144e-14, 0.032811442809753524, 0.8481992878012803, -6.105748330835061e-14, -0.03281144424292449, -3.1577389163151884e-14, -4.187734370911087e-27, -1.2854090302904006e-14, 3.1577389041770557e-14, 3.125207882196514e-26, 1.2854090129567616e-14, 3.157738904853619e-14, 70.0, -1.2854090289082727e-14, -3.157738892481146e-14, -2.0349175197537167e-26, 1.2854090229393171e-14, -5.269462858257672e-14, -2.7910275143085733e-26, -3.2835059058093265e-14, 5.2694628364128274e-14, 1.1586187771116578e-27, 3.2835059144782616e-14, 5.269462855279586e-14, 2.258027249881715e-26, -3.283505907791845e-14, -5.2694628344623126e-14, -1.9596577300377023e-26, 3.283505912875992e-14, -0.1461425619617882, -1.8537100515006236e-13, -16.564597046080387, 0.14614255696366685, 1.509922580864464e-14, 16.564597044386282, 0.14614255677284027, -1.2854090289082727e-14, 53.43540295416199, -0.14614255583104696, 1.7396631108112212e-13, 16.564597044594088, -0.2607424917431362, 2.0595157636524307e-15, 0.569833913792941, 0.26074249101540714, 1.1974311677792416e-13, -0.5698339121012801, 0.2607424890740569, -1.4522063132057856e-13, 0.5698339137456947, -0.26074248562194663, 4.316123798873747e-14, -0.5698339128153203, -16.082263952978607, -1.0602717348065096e-13, -0.14614255628799772, 16.082263945374628, -1.1545605021835441e-13, 0.14614255365463474, 16.082263945490997, -3.157738892481146e-14, -0.14614255583104696, 53.91773605602494, 6.593090893430996e-14, 0.1461425538602139, -0.8481992953937417, 1.2060372072609393e-13, -0.03281144242313438, 0.8481992946124088, 8.1427743490713e-14, 0.032811445136378556, 0.8481992918506772, -7.03915118683201e-14, -0.032811442463414935, -0.84819928629578, 6.10574830758142e-14, 0.03281144389658578, 6.593091287197725e-14, -1.0221977158829252e-25, 1.7396631115997004e-13, -6.593091036565291e-14, 2.7265780670044753e-27, -1.7396631065672495e-13, -6.593090948607235e-14, -2.0349175197537167e-26, 1.7396631108112212e-13, 6.593090893430996e-14, 70.0, -1.739663108707331e-13, 1.3221318754190835e-13, 5.696398753716839e-27, -1.9214148319210015e-14, -1.3221318660909056e-13, 5.932766329081463e-26, 1.9214148092784014e-14, -1.3221318591492981e-13, -1.432217103169728e-25, -1.9214148296716725e-14, 1.3221318390939528e-13, 4.8374917557271364e-26, 1.9214147949276735e-14, 0.146142559990954, 1.8537100508535618e-13, 16.56459704483646, -0.14614255499283435, -1.509922597611398e-14, -16.564597043142356, -0.14614255480200666, 1.2854090229393171e-14, 16.564597044594088, 0.1461425538602139, -1.739663108707331e-13, 53.43540295664983, 0.26074248953230067, -2.0595155890711762e-15, -0.5698339141715174, -0.2607424888045691, -1.1974311675429524e-13, 0.5698339124798562, -0.2607424868632196, 1.4522063108914772e-13, -0.569833914124272, 0.2607424834111109, -4.3161237873989486e-14, 0.5698339131938962, -0.8481993056384645, 7.528131754189253e-14, -0.26074249222772683, 0.8481992971752064, -1.3531848787014405e-14, 0.2607424893168826, 0.8481992968992385, -5.269462858257672e-14, -0.2607424917431362, -0.8481992953937417, 1.3221318754190835e-13, 0.26074248953230067, 53.779641393023816, -8.804176502396787e-16, -0.32606795780902614, 16.220358606178863, -6.50816243082106e-14, 0.3260679608690008, 16.220358602647398, -1.3758025802244919e-13, -0.3260679578595655, -16.22035859624602, 5.913255540193281e-14, 0.32606795953882, 1.2060373114203722e-13, 2.1719402266689393e-26, 2.0595155482910307e-15, -1.206037260259837e-13, -6.391519787805221e-26, -2.059515613087182e-15, -1.2060372174833155e-13, -2.7910275143085733e-26, 2.0595157636524307e-15, 1.2060372072609393e-13, 5.696398753716839e-27, -2.0595155890711762e-15, -8.804176502396787e-16, 70.0, 8.3536339732658e-14, 8.804179733502392e-16, -8.643441172706526e-27, -8.353634006174448e-14, 8.804235525519015e-16, -1.2252966060141865e-26, 8.35363399322639e-14, -8.804280017342732e-16, 2.791321050223835e-26, -8.353634051933596e-14, -0.03281144372263808, -1.1327804763388604e-15, 0.5698339137017707, 0.03281144240696229, -9.087015556474095e-14, -0.5698339141796723, 0.03281144276947146, -3.2835059058093265e-14, 0.569833913792941, -0.03281144242313438, -1.9214148319210015e-14, -0.5698339141715174, -0.32606795780902614, 8.3536339732658e-14, 53.111848076461825, 0.32606795783600734, 1.620484372755778e-14, 16.888151924065887, 0.3260679574597079, 1.863164034937294e-14, -16.888151923535236, -0.3260679565140494, 2.6374070827443595e-14, 16.88815192377604, 0.8481993048571289, -7.528131780267788e-14, 0.2607424914999982, -0.8481992963938725, 1.3531848586853307e-14, -0.26074248858915045, -0.8481992961179058, 5.2694628364128274e-14, 0.26074249101540714, 0.8481992946124088, -1.3221318660909056e-13, -0.2607424888045691, 16.220358606178863, 8.804179733502392e-16, 0.32606795783600734, 53.779641394618466, 6.508162425626365e-14, -0.3260679608959823, -16.22035860185007, 1.3758025694116317e-13, 0.32606795788654674, 16.220358595448687, -5.913255484900089e-14, -0.32606795956580087, 8.142774651650137e-14, -6.05793158318591e-26, 1.1974311672112274e-13, -8.142774496607707e-14, 1.5553885840567763e-26, -1.1974311683923756e-13, -8.142774372771832e-14, 1.1586187771116578e-27, 1.1974311677792416e-13, 8.1427743490713e-14, 5.932766329081463e-26, -1.1974311675429524e-13, -6.50816243082106e-14, -8.643441172706526e-27, 1.620484372755778e-14, 6.508162425626365e-14, 70.0, -1.6204843782875914e-14, 6.5081626032309e-14, -5.1473976761860795e-26, 1.6204843763768567e-14, -6.508162728514939e-14, 1.133711015975117e-26, -1.6204843915281654e-14, 0.03281144643588272, 1.1327805488327037e-15, -0.5698339120101101, -0.032811445120206034, 9.087015590450392e-14, 0.5698339124880106, -0.0328114454827167, 3.2835059144782616e-14, -0.5698339121012801, 0.032811445136378556, 1.9214148092784014e-14, 0.5698339124798562, 0.3260679608690008, -8.353634006174448e-14, 16.888151924065887, -0.3260679608959823, -1.6204843782875914e-14, 53.11184807540643, -0.32606796051968334, -1.863164010343259e-14, 16.888151924062946, 0.3260679595740238, -2.6374070961220028e-14, -16.88815192430374, 0.8481993020954002, -7.528131899190859e-14, 0.26074248955864776, -0.8481992936321436, 1.353184253543683e-14, -0.2607424866478036, -0.8481992933561759, 5.269462855279586e-14, 0.2607424890740569, 0.8481992918506772, -1.3221318591492981e-13, -0.2607424868632196, 16.220358602647398, 8.804235525519015e-16, 0.3260679574597079, -16.22035860185007, 6.5081626032309e-14, -0.32606796051968334, 53.7796414016814, 1.3758025643897589e-13, 0.32606795751024636, 16.220358591917222, -5.9132555343091e-14, -0.3260679591895015, -7.039151585649994e-14, 8.8478679168918e-26, -1.452206314160127e-13, 7.039151327998339e-14, 5.758054948515348e-27, 1.4522063082216185e-13, 7.039151245741144e-14, 2.258027249881715e-26, -1.4522063132057856e-13, -7.03915118683201e-14, -1.432217103169728e-25, 1.4522063108914772e-13, -1.3758025802244919e-13, -1.2252966060141865e-26, 1.863164034937294e-14, 1.3758025694116317e-13, -5.1473976761860795e-26, -1.863164010343259e-14, 1.3758025643897589e-13, 70.0, 1.8631640327023008e-14, -1.375802543573485e-13, -4.8122135785155847e-26, -1.863163995567864e-14, -0.0328114437629188, -1.1327804846722734e-15, 0.569833913654527, 0.032811442447242434, -9.087015578464572e-14, -0.5698339141324243, 0.032811442809753524, -3.283505907791845e-14, 0.5698339137456947, -0.032811442463414935, -1.9214148296716725e-14, -0.569833914124272, -0.3260679578595655, 8.35363399322639e-14, -16.888151923535236, 0.32606795788654674, 1.6204843763768567e-14, 16.888151924062946, 0.32606795751024636, 1.8631640327023008e-14, 53.1118480764677, -0.3260679565645887, 2.637407083820774e-14, 16.888151923773098, -0.8481992965405046, 7.528132035333206e-14, -0.2607424861065386, 0.8481992880772455, -1.35318379531478e-14, 0.26074248319569215, 0.8481992878012803, -5.2694628344623126e-14, -0.26074248562194663, -0.84819928629578, 1.3221318390939528e-13, 0.2607424834111109, -16.22035859624602, -8.804280017342732e-16, -0.3260679565140494, 16.220358595448687, -6.508162728514939e-14, 0.3260679595740238, 16.220358591917222, -1.375802543573485e-13, -0.3260679565645887, 53.77964141448417, 5.913255481528515e-14, 0.32606795824384255, 6.105748375394372e-14, -1.7030721497391588e-26, 4.316123805014064e-14, -6.105748322807148e-14, -2.9253738549270397e-26, -4.3161237678336886e-14, -6.105748330835061e-14, -1.9596577300377023e-26, 4.316123798873747e-14, 6.10574830758142e-14, 4.8374917557271364e-26, -4.3161237873989486e-14, 5.913255540193281e-14, 2.791321050223835e-26, 2.6374070827443595e-14, -5.913255484900089e-14, 1.133711015975117e-26, -2.6374070961220028e-14, -5.9132555343091e-14, -4.8122135785155847e-26, 2.637407083820774e-14, 5.913255481528515e-14, 70.0, -2.6374070960160042e-14, 0.03281144519608987, 1.1327806765726472e-15, -0.5698339127241502, -0.032811443880414584, 9.087015637834553e-14, 0.5698339132020506, -0.03281144424292449, 3.283505912875992e-14, -0.5698339128153203, 0.03281144389658578, 1.9214147949276735e-14, 0.5698339131938962, 0.32606795953882, -8.353634051933596e-14, 16.88815192377604, -0.32606795956580087, -1.6204843915281654e-14, -16.88815192430374, -0.3260679591895015, -1.863163995567864e-14, 16.888151923773098, 0.32606795824384255, -2.6374070960160042e-14, 53.1118480759861]]}, {"__ndarray__": [[24], "float64", [9.891587790873377, 3.12404180107275, 0.14378688078200558, 1.6281511752603244, 1.04134726702425, 4.217974988254057, 7.388020658327189, 1.04134726702425, 2.3246678153000593, 4.131718307806604, 3.12404180107275, 2.037094053736025, 1.375692024845045, 3.12404180107275, 1.7480337494754494, 10.1440469412887, 1.04134726702425, 2.6137281195606543, 4.384177458221784, 1.04134726702425, 3.928914683993505, 7.135561507912067, 3.12404180107275, 0.43284718504260933]]}, {"__ndarray__": [[24], "float64", [-7.366449836108068e-05, 9.935929865304666e-16, -0.00011292418602180552, 7.366449888576579e-05, -1.0800339353157593e-15, 0.00011292418615492712, 7.366449937211975e-05, -1.0064518673768987e-15, -0.00011292418599284713, -7.366449959085103e-05, 1.0638859629305654e-15, 0.00011292418605382201, -2.256500300123164e-05, 8.107406565543128e-16, 4.233430154437865e-07, 2.2565003263892627e-05, -7.225202698129029e-16, -4.233431107223079e-07, 2.256500365631765e-05, -8.035463980553192e-16, 4.2334305973978784e-07, -2.2565004224943527e-05, 7.428528750311962e-16, -4.2334315855194096e-07]]}, 0.2]