[{"__ndarray__": [[24, 24], "float64", [53.82680644326204, 9.663555473861873e-06, -0.14819002071528609, 16.17279342023174, -3.0135736070025496e-05, 0.14410421540819618, 16.17356822932854, 2.4849758837196386e-05, -0.14526038284482737, -16.172220112215427, -0.00043594046971785424, 0.14579880742690096, -0.7469993057043987, -0.0002594741826873845, -0.011151276086113798, 0.7449784543913449, 0.00048666171085265484, 0.014180375585683497, 0.7468406557543581, -8.535439530587058e-05, -0.012341076015648642, -0.7457677848840845, 0.00028972970502412444, 0.012859357243708139, 9.663555473861873e-06, 70.00000048435435, 0.0003823721405697018, -9.021705559721278e-06, 9.413813746288105e-08, -0.0003788046113987659, -9.921744044479107e-06, 4.0838815774074546e-07, 0.0003809378773383374, 8.842502484391831e-06, 3.3264249300758013e-07, -0.0003798181396669129, -0.0004927352271412926, 2.2719892890195589e-07, -0.0006942425198367964, 0.000493974792626084, -8.38492675028083e-07, 0.0006899650098400349, 0.0004925460235697934, -3.3019687233682293e-07, -0.0006928791121391046, -0.000493348197410654, -3.780324707306656e-07, 0.0006924693552689389, -0.14819002071528609, 0.0003823721405697018, 53.31255470561825, 0.1481553544675429, 4.7903525301335286e-05, 16.685814435986792, 0.1483400244749356, -8.842256362881734e-05, -16.686748764182344, -0.1480713541914111, 5.3138605141818564e-05, 16.68666624793818, -0.2217169351088557, -0.00041375548759164764, 0.6405644414140504, 0.22130770465226074, 0.00020381466980259988, -0.639030637588814, 0.22152919181370773, 0.000639188927529581, 0.6402867051587231, -0.22135396545191438, -0.0008242398200118796, -0.6401071343153164, 16.17279342023174, -9.021705559721278e-06, 0.1481553544675429, 53.82760685580863, 3.086207112191087e-05, -0.14407340881949934, -16.173167458515127, -2.4318981347837065e-05, 0.14522851491879324, 16.171820405356332, 0.0004359752645398715, -0.145766032070076, 0.7480946505862387, 0.00025917164030078813, 0.011254698476165129, -0.746076047499826, -0.0004877721717070895, -0.014280714417091556, -0.747936780226147, 8.542226315403422e-05, 0.012443605748330158, 0.7468649540940593, -0.0002903183269097418, -0.012962018306753698, -3.0135736070025496e-05, 9.413813746288105e-08, 4.7903525301335286e-05, 3.086207112191087e-05, 69.99999970829023, -4.2479168635764516e-05, 2.954377773315179e-05, 1.2728157183732756e-07, 4.496803021247591e-05, -3.1243677493385203e-05, 3.4657125645804753e-07, -4.459985941840183e-05, -0.0016877776379794905, 3.7092890326408385e-07, -0.000641670821735164, 0.0016902158276165349, -3.825053684389451e-07, 0.0006359138821719043, 0.0016879445926019823, -4.2314884632981194e-07, -0.0006395040700091719, -0.0016894092175373425, 1.5844409473786253e-07, 0.0006394684820811179, 0.14410421540819618, -0.0003788046113987659, 16.685814435986792, -0.14407340881949934, -4.2479168635764516e-05, 53.31577207590908, -0.14424826267841742, 9.09133226149005e-05, 16.685147045847113, 0.14399371989205778, -5.4936238641133104e-05, -16.685058632686957, 0.23419901770500007, 0.0004096768518918103, -0.6384959264440553, -0.23381328644383553, -0.00020649408514890035, 0.6370025172864582, -0.2340161400373038, -0.0006364418832596909, -0.6382351219192193, 0.23385414503299878, 0.0008185658154480616, 0.6380536059915156, 16.17356822932854, -9.921744044479107e-06, 0.1483400244749356, -16.173167458515127, 2.954377773315179e-05, -0.14424826267841742, 53.826056387964236, -2.502174779068944e-05, 0.14540673757369413, 16.172593621634118, 0.0004362483779610837, -0.1459454963646884, 0.7455421295490241, 0.0002600261025865766, 0.010929085137871719, -0.7435183085851798, -0.00048662497749838416, -0.013963937907035873, -0.7453829951104669, 8.495205735851918e-05, 0.012121268533941132, 0.7443083935707262, -0.00028920179270843253, -0.01263941877294747, 2.4849758837196386e-05, 4.0838815774074546e-07, -8.842256362881734e-05, -2.4318981347837065e-05, 1.2728157183732756e-07, 9.09133226149005e-05, -2.502174779068944e-05, 70.00000032337758, -8.945704130575148e-05, 2.421484864698943e-05, 2.9867837954277884e-07, 9.02045005400577e-05, -0.0001914537719103753, 8.807061888327999e-08, 0.00018307777547787137, 0.00019232031167074518, -7.06864316933503e-07, -0.00018605457448645277, 0.00019125141352915084, -1.9815215440182707e-07, 0.0001841285397650371, -0.00019184183164045406, -3.4077982483513717e-07, -0.00018438995899091486, -0.14526038284482737, 0.0003809378773383374, -16.686748764182344, 0.14522851491879324, 4.496803021247591e-05, 16.685147045847113, 0.14540673757369413, -8.945704130575148e-05, 53.3139295439772, -0.14514726229845526, 5.458500241375914e-05, 16.68598579291001, -0.22810750713621136, -0.00041130095186035504, 0.6403151194186018, 0.22771299918912602, 0.00020449659304722217, -0.6388088553689629, 0.2279223119610796, 0.0006374974482520273, 0.6400484414326932, -0.22775541142235767, -0.0008217269609574457, -0.6398683240049367, -16.172220112215427, 8.842502484391831e-06, -0.1480713541914111, 16.171820405356332, -3.1243677493385203e-05, 0.14399371989205778, 16.172593621634118, 2.421484864698943e-05, -0.14514726229845526, 53.82875202760356, -0.0004356764990901379, 0.14568436986707306, -0.749025698327128, -0.00025882147017347937, -0.01115762115684546, 0.7470092457421746, 0.0004876343354323605, 0.014179480214291357, 0.7488681123194945, -8.578149625686971e-05, -0.012344568311875623, -0.7477976019490311, 0.0002908314028605588, 0.012863235987740196, -0.00043594046971785424, 3.3264249300758013e-07, 5.3138605141818564e-05, 0.0004359752645398715, 3.4657125645804753e-07, -5.4936238641133104e-05, 0.0004362483779610837, 2.9867837954277884e-07, 5.458500241375914e-05, -0.0004356764990901379, 69.99999999580416, -5.393400149737623e-05, 0.00019561374770653557, -1.3906266167729275e-07, -0.0006225895020596197, -0.00019677416425695335, -5.55574962309749e-07, 0.0006238295443213987, -0.0001959907340896616, -1.7404856496633717e-08, -0.0006230250951392986, 0.00019654447697369865, -2.616537761542522e-07, 0.0006229316854706421, 0.14579880742690096, -0.0003798181396669129, 16.68666624793818, -0.145766032070076, -4.459985941840183e-05, -16.685058632686957, -0.1459454963646884, 9.02045005400577e-05, 16.68598579291001, 0.14568436986707306, -5.393400149737623e-05, 53.314101290797936, 0.22920237856036718, 0.00041144932496837907, -0.6391483765918405, -0.22880605743341192, -0.00020592106645200855, 0.6376348468622977, -0.22901766495113066, -0.00063772767376834, -0.6388796778950182, 0.22884969502406616, 0.0008203469181827015, 0.6386985086359966, -0.7469993057043987, -0.0004927352271412926, -0.2217169351088557, 0.7480946505862387, -0.0016877776379794905, 0.23419901770500007, 0.7455421295490241, -0.0001914537719103753, -0.22810750713621136, -0.749025698327128, 0.00019561374770653557, 0.22920237856036718, 53.63493479359709, 0.0013223645252873717, -0.3018551447527408, 16.370641578815924, 0.00026411256731305086, 0.2879529679872619, 16.36618329422697, -0.0004359653251449481, -0.2966151157488992, -16.369371442822835, 0.0010258410929517606, 0.2969403383662829, -0.0002594741826873845, 2.2719892890195589e-07, -0.00041375548759164764, 0.00025917164030078813, 3.7092890326408385e-07, 0.0004096768518918103, 0.0002600261025865766, 8.807061888327999e-08, -0.00041130095186035504, -0.00025882147017347937, -1.3906266167729275e-07, 0.00041144932496837907, 0.0013223645252873717, 69.99999985760958, 0.0010217440552421227, -0.0013243479924983969, -2.554251091157294e-07, -0.0010175938054922443, -0.0013226719633387827, 2.1937914618704925e-07, 0.001020197587845835, 0.0013237533405264363, -3.686994214900485e-07, -0.0010204175749765924, -0.011151276086113798, -0.0006942425198367964, 0.6405644414140504, 0.011254698476165129, -0.000641670821735164, -0.6384959264440553, 0.010929085137871719, 0.00018307777547787137, 0.6403151194186018, -0.01115762115684546, -0.0006225895020596197, -0.6391483765918405, -0.3018551447527408, 0.0010217440552421227, 53.17773857744376, 0.30243145366887314, 6.08945468443148e-05, 16.818352701006337, 0.3021343833471879, -0.0007248063910345308, -16.820862972375743, -0.3025855784691158, 0.0014175928080623031, 16.821536436069135, 0.7449784543913449, 0.000493974792626084, 0.22130770465226074, -0.746076047499826, 0.0016902158276165349, -0.23381328644383553, -0.7435183085851798, 0.00019232031167074518, 0.22771299918912602, 0.7470092457421746, -0.00019677416425695335, -0.22880605743341192, 16.370641578815924, -0.0013243479924983969, 0.30243145366887314, 53.62377023206476, -0.0002646362986788957, -0.2885069818192541, -16.37176176064057, 0.00043734620300838264, 0.29718233441739206, 16.374956605790604, -0.0010280986505870056, -0.29750816610323716, 0.00048666171085265484, -8.38492675028083e-07, 0.00020381466980259988, -0.0004877721717070895, -3.825053684389451e-07, -0.00020649408514890035, -0.00048662497749838416, -7.06864316933503e-07, 0.00020449659304722217, 0.0004876343354323605, -5.55574962309749e-07, -0.00020592106645200855, 0.00026411256731305086, -2.554251091157294e-07, 6.08945468443148e-05, -0.0002646362986788957, 70.00000206926306, -5.7092817551788775e-05, -0.0002635241249882022, 2.9668966308617707e-07, 5.904018843259221e-05, 0.00026414895925698924, 3.72909700942289e-07, -5.8738028965062695e-05, 0.014180375585683497, 0.0006899650098400349, -0.639030637588814, -0.014280714417091556, 0.0006359138821719043, 0.6370025172864582, -0.013963937907035873, -0.00018605457448645277, -0.6388088553689629, 0.014179480214291357, 0.0006238295443213987, 0.6376348468622977, 0.2879529679872619, -0.0010175938054922443, 16.818352701006337, -0.2885069818192541, -5.7092817551788775e-05, 53.18552090394752, -0.2882268205246329, 0.0007222211018269314, 16.81696890098045, 0.28866563071534335, -0.0014111882915892804, -16.81764037706576, 0.7468406557543581, 0.0004925460235697934, 0.22152919181370773, -0.747936780226147, 0.0016879445926019823, -0.2340161400373038, -0.7453829951104669, 0.00019125141352915084, 0.2279223119610796, 0.7488681123194945, -0.0001959907340896616, -0.22901766495113066, 16.36618329422697, -0.0013226719633387827, 0.3021343833471879, -16.37176176064057, -0.0002635241249882022, -0.2882268205246329, 53.632698617014526, 0.0004363448259127715, 0.2968921233511834, 16.370490856740957, -0.0010259000042836947, -0.29721738483227994, -8.535439530587058e-05, -3.3019687233682293e-07, 0.000639188927529581, 8.542226315403422e-05, -4.2314884632981194e-07, -0.0006364418832596909, 8.495205735851918e-05, -1.9815215440182707e-07, 0.0006374974482520273, -8.578149625686971e-05, -1.7404856496633717e-08, -0.00063772767376834, -0.0004359653251449481, 2.1937914618704925e-07, -0.0007248063910345308, 0.00043734620300838264, 2.9668966308617707e-07, 0.0007222211018269314, 0.0004363448259127715, 70.00000019799445, -0.0007239361952484633, -0.000436964132749777, 2.548394742166713e-07, 0.0007240046656683585, -0.012341076015648642, -0.0006928791121391046, 0.6402867051587231, 0.012443605748330158, -0.0006395040700091719, -0.6382351219192193, 0.012121268533941132, 0.0001841285397650371, 0.6400484414326932, -0.012344568311875623, -0.0006230250951392986, -0.6388796778950182, -0.2966151157488992, 0.001020197587845835, -16.820862972375743, 0.29718233441739206, 5.904018843259221e-05, 16.81696890098045, 0.2968921233511834, -0.0007239361952484633, 53.180531079741186, -0.2973385718090176, 0.00141597810743541, 16.820142644817302, -0.7457677848840845, -0.000493348197410654, -0.22135396545191438, 0.7468649540940593, -0.0016894092175373425, 0.23385414503299878, 0.7443083935707262, -0.00019184183164045406, -0.22775541142235767, -0.7477976019490311, 0.00019654447697369865, 0.22884969502406616, -16.369371442822835, 0.0013237533405264363, -0.3025855784691158, 16.374956605790604, 0.00026414895925698924, 0.28866563071534335, 16.370490856740957, -0.000436964132749777, -0.2973385718090176, 53.62631601938042, 0.001027116573677946, 0.29766405625210857, 0.00028972970502412444, -3.780324707306656e-07, -0.0008242398200118796, -0.0002903183269097418, 1.5844409473786253e-07, 0.0008185658154480616, -0.00028920179270843253, -3.4077982483513717e-07, -0.0008217269609574457, 0.0002908314028605588, -2.616537761542522e-07, 0.0008203469181827015, 0.0010258410929517606, -3.686994214900485e-07, 0.0014175928080623031, -0.0010280986505870056, 3.72909700942289e-07, -0.0014111882915892804, -0.0010259000042836947, 2.548394742166713e-07, 0.00141597810743541, 0.001027116573677946, 70.00000056297222, -0.0014153285765119057, 0.012859357243708139, 0.0006924693552689389, -0.6401071343153164, -0.012962018306753698, 0.0006394684820811179, 0.6380536059915156, -0.01263941877294747, -0.00018438995899091486, -0.6398683240049367, 0.012863235987740196, 0.0006229316854706421, 0.6386985086359966, 0.2969403383662829, -0.0010204175749765924, 16.821536436069135, -0.29750816610323716, -5.8738028965062695e-05, -16.81764037706576, -0.29721738483227994, 0.0007240046656683585, 16.820142644817302, 0.29766405625210857, -0.0014153285765119057, 53.17918463993174]]}, {"__ndarray__": [[24], "float64", [10.020651539019044, 3.1679536779319775, 0.13910798781228834, 1.6610115546280682, 1.0559845596429462, 4.283965377665909, 7.501842867176074, 1.05598475664788, 2.3506431087439927, 4.17981981090663, 3.167953908566343, 2.072428864690816, 1.4228781133509798, 3.167954627427182, 1.7403765476864843, 10.25878546684576, 1.0559844202083615, 2.682693379286213, 4.4179535035409785, 1.0559842008112625, 3.951913181933068, 7.263709175838355, 3.1679547032940496, 0.47115865148426095]]}, {"__ndarray__": [[24], "float64", [-0.00021954703616167557, 5.909114179126955e-07, -9.372977149420561e-06, 0.0002187510184551085, 1.2051563148484594e-06, -7.536458191380067e-07, 0.00022065258604044293, 4.7349822202665576e-07, -3.2557874235946765e-06, -0.00021779905607349087, -5.017131692272634e-07, 3.6570289166213975e-06, 0.0005123440702561718, -1.0134738426307186e-06, 2.5361734336013405e-06, -0.0005171278328670098, -2.1414223874082743e-07, 7.473633087849901e-06, -0.0005133071516817514, 3.991279975587513e-07, -1.8437588044611172e-06, 0.0005160334020322045, -9.393647017477526e-07, 1.559333758541721e-06]]}, 0.2]