[{"__ndarray__": [[24, 24], "float64", [53.95115100588011, -0.0017759799013257471, -0.16579296144830108, 16.05456280150491, -0.0010018860258722577, 0.16175370304777836, 16.01368409572629, 0.00344345883968243, -0.18269371741719342, -16.019579252403002, -0.003249015849223353, 0.18409019130447485, -0.8458122713926433, 0.0019852722813474694, 0.045512957490108974, 0.847555242920693, 0.00029525821547747366, -0.040858735026502196, 0.7969769479348427, 0.0015521008094170606, 0.025912444901292908, -0.7985385699530136, -0.0012492084461806219, -0.027923882793782134, -0.0017759799013257471, 69.99999915204867, -0.001293715337416563, 0.001781017494626359, -3.6093317235367835e-07, 0.001290700345173124, 0.001741221333039688, 2.1032180666348865e-06, -0.001308075101550005, -0.0017431904621992356, -1.5578432899611888e-06, 0.0013092015439708682, -4.871010572501152e-05, 6.217192961942176e-07, -0.0010148162163520977, 5.3087655538261534e-05, -1.1510080282276113e-08, 0.0010179811486348074, 6.1282065515211055e-06, 1.4362672083570817e-06, -0.0010314798439240176, -1.3574220332315465e-05, -1.3829667318702288e-06, 0.0010302034614298008, -0.16579296144830108, -0.001293715337416563, 53.35460452792302, 0.16938695962572803, 0.0006972546181784907, 16.642319352413534, 0.14033186296166894, 0.0016681922610248515, -16.655472857525066, -0.14187966629327886, -0.0013741900271855383, 16.656121694884526, -0.209294768524463, 0.0013569409706408679, 0.6614788380401294, 0.21113037261017664, -0.0006200387719914653, -0.6576591061356499, 0.17680918222229747, 0.0008813161757089738, 0.6488228144617105, -0.18069098134110456, -0.0013157600111531262, -0.65021526406198, 16.05456280150491, 0.001781017494626359, 0.16938695962572803, 53.93974341473705, 0.0010084586917362538, -0.1653458891886464, -16.019233177106983, -0.0034491624084007546, 0.1863453765886009, 16.025171562108177, 0.0032582936295168477, -0.18775067929509354, 0.846264354249701, -0.0019884185101099565, -0.03980696623404495, -0.8479842960332438, -0.0003031523609707959, 0.03516625195923312, -0.7973353746670858, -0.0015589092666835201, -0.020151486945279046, 0.7988107149887838, 0.0012518728071665942, 0.022156433431803152, -0.0010018860258722577, -3.6093317235367835e-07, 0.0006972546181784907, 0.0010084586917362538, 70.00000006436737, -0.000700075975579713, 0.000986089008057681, 1.585163709794306e-06, 0.0006895424213072185, -0.0009845399206114514, -7.37613425528781e-07, -0.0006891978525606988, -0.0006641268302724305, 1.952987953149599e-07, -0.002268496761302686, 0.0006698363250697268, -4.805187667810947e-07, 0.0022729681838188237, 0.000631910247829976, 8.451253586461077e-07, -0.0022790556797946415, -0.0006457414957242174, -1.1108898878470595e-06, 0.0022770610459072072, 0.16175370304777836, 0.001290700345173124, 16.642319352413534, -0.1653458891886464, -0.000700075975579713, 53.360754458515544, -0.1363921623694736, -0.001663827722801994, 16.652359380371767, 0.13792598495487896, 0.0013690579348370523, -16.65300179335851, 0.21071706095670523, -0.0013552332340910811, -0.6659548673624516, -0.21255467286597418, 0.00062360828570182, 0.6621283294485187, -0.1783220913709201, -0.0008780262586679528, -0.6533354970986521, 0.18221806702320026, 0.0013137967475451734, 0.6547306370699593, 16.01368409572629, 0.001741221333039688, 0.14033186296166894, -16.019233177106983, 0.000986089008057681, -0.1363921623694736, 54.02020567037989, -0.003377165236753507, 0.15671931610314355, 15.985617387769713, 0.0031970287887742007, -0.1580659125378039, 0.8745433495473267, -0.0019686206678421296, -0.07470515003986658, -0.8761654955811287, -0.00027809603793327504, 0.07013126261309155, -0.8271996313736603, -0.0015064399332822358, -0.05564455950053451, 0.828547800424908, 0.0012059828216888883, 0.057625342710774075, 0.00344345883968243, 2.1032180666348865e-06, 0.0016681922610248515, -0.0034491624084007546, 1.585163709794306e-06, -0.001663827722801994, -0.003377165236753507, 69.99999621582879, 0.0016946800612964513, 0.0033849283139023275, 3.667225207019459e-06, -0.0016979328012834516, 0.0011375912143094203, -1.4199454218016744e-06, 0.0037191633966617435, -0.0011395882083733697, -1.528713123517123e-06, -0.0037210097309291687, -0.0010643718263670804, -2.6893563139074347e-06, 0.003747709445435704, 0.0010643093116289152, 2.066579144696845e-06, -0.0037469749093430697, -0.18269371741719342, -0.001308075101550005, -16.655472857525066, 0.1863453765886009, 0.0006895424213072185, 16.652359380371767, 0.15671931610314355, 0.0016946800612964513, 53.33424542450464, -0.15830501986897327, -0.0013963972855423046, 16.666424855291616, -0.20106546320229807, 0.0013642878709026968, 0.646540780762042, 0.20293928766560299, -0.0006115129906559475, -0.642695194185763, 0.16799541571776305, 0.0008998379052013008, 0.6336708424679799, -0.1719351957719099, -0.0013323630035661134, -0.6350732316874711, -16.019579252403002, -0.0017431904621992356, -0.14187966629327886, 16.025171562108177, -0.0009845399206114514, 0.13792598495487896, 15.985617387769713, 0.0033849283139023275, -0.15830501986897327, 54.00858013279347, -0.0031999943454131107, 0.15965375386913988, -0.8747905268475917, 0.001969973404785275, 0.06909185173977042, 0.8764484825610435, 0.00027520596730337145, -0.06449657582279705, 0.8272751767107316, 0.0015086912186488151, 0.0499823341721182, -0.8287229624781952, -0.0012110742521865064, -0.051972662691879834, -0.003249015849223353, -1.5578432899611888e-06, -0.0013741900271855383, 0.0032582936295168477, -7.37613425528781e-07, 0.0013690579348370523, 0.0031970287887742007, 3.667225207019459e-06, -0.0013963972855423046, -0.0031999943454131107, 69.99999723203949, 0.001398476797283079, -0.0015458543011345554, 1.1010590040033753e-06, -0.003482296079584982, 0.0015525443380596542, 2.223973946404638e-07, 0.003487663530860595, 0.001474629784397522, 2.2989404642747414e-06, -0.003508777042875209, -0.0014876320445913398, -2.226204927613697e-06, 0.0035064621721509455, 0.18409019130447485, 0.0013092015439708682, 16.656121694884526, -0.18775067929509354, -0.0006891978525606988, -16.65300179335851, -0.1580659125378039, -0.0016979328012834516, 16.666424855291616, 0.15965375386913988, 0.001398476797283079, 53.33290463946761, 0.20112442723605084, -0.0013650691323218883, -0.6454196776273663, -0.20300628838275803, 0.0006118169053647604, 0.6415642909495589, -0.16799118151361248, -0.0009022800043191496, -0.6325241463531897, 0.17194568950457978, 0.0013349846665324562, 0.6339301367460589, -0.8458122713926433, -4.871010572501152e-05, -0.209294768524463, 0.846264354249701, -0.0006641268302724305, 0.21071706095670523, 0.8745433495473267, 0.0011375912143094203, -0.20106546320229807, -0.8747905268475917, -0.0015458543011345554, 0.20112442723605084, 53.7740495242071, 0.0015926193605115318, -0.3853631769210511, 16.223957015268024, -0.0005934716216809805, 0.38341927646649, 16.24153318423326, -0.00028598605609226886, -0.38447953415128405, -16.239744628703985, 0.00040793828318615275, 0.3849421781286939, 0.0019852722813474694, 6.217192961942176e-07, 0.0013569409706408679, -0.0019884185101099565, 1.952987953149599e-07, -0.0013552332340910811, -0.0019686206678421296, -1.4199454218016744e-06, 0.0013642878709026968, 0.001969973404785275, 1.1010590040033753e-06, -0.0013650691323218883, 0.0015926193605115318, 69.99999953978435, 0.000885590573250128, -0.0015951114919035849, -9.483282848528534e-08, -0.0008873017225377544, -0.001568007756216815, -6.973662541813564e-07, 0.0008950120337963183, 0.0015722933792876508, 7.542830841249769e-07, -0.0008942273596329814, 0.045512957490108974, -0.0010148162163520977, 0.6614788380401294, -0.03980696623404495, -0.002268496761302686, -0.6659548673624516, -0.07470515003986658, 0.0037191633966617435, 0.646540780762042, 0.06909185173977042, -0.003482296079584982, -0.6454196776273663, -0.3853631769210511, 0.000885590573250128, 53.221998438658986, 0.38659670767651144, 0.0015278756090336435, 16.783468064284797, 0.34263249466364587, 0.0032315706037885344, -16.800210198954133, -0.3439587178563211, -0.002598591194952012, 16.7980986221272, 0.847555242920693, 5.3087655538261534e-05, 0.21113037261017664, -0.8479842960332438, 0.0006698363250697268, -0.21255467286597418, -0.8761654955811287, -0.0011395882083733697, 0.20293928766560299, 0.8764484825610435, 0.0015525443380596542, -0.20300628838275803, 16.223957015268024, -0.0015951114919035849, 0.38659670767651144, 53.77806831053426, 0.0005847647814020383, -0.38463440408977967, -16.239495677843763, 0.0002821450092963969, 0.3857376419589178, 16.237616417612784, -0.00040767835205541853, -0.3862086445614273, 0.00029525821547747366, -1.1510080282276113e-08, -0.0006200387719914653, -0.0003031523609707959, -4.805187667810947e-07, 0.00062360828570182, -0.00027809603793327504, -1.528713123517123e-06, -0.0006115129906559475, 0.00027520596730337145, 2.223973946404638e-07, 0.0006118169053647604, -0.0005934716216809805, -9.483282848528534e-08, 0.0015278756090336435, 0.0005847647814020383, 70.00000188387511, -0.0015346404696798405, 0.0006284779750412037, -1.330436626155523e-06, 0.001540650933702114, -0.0006089869188244607, 1.3397389350447366e-06, -0.0015377595014272574, -0.040858735026502196, 0.0010179811486348074, -0.6576591061356499, 0.03516625195923312, 0.0022729681838188237, 0.6621283294485187, 0.07013126261309155, -0.0037210097309291687, -0.642695194185763, -0.06449657582279705, 0.003487663530860595, 0.6415642909495589, 0.38341927646649, -0.0008873017225377544, 16.783468064284797, -0.38463440408977967, -0.0015346404696798405, 53.211092730749805, -0.34065164202448195, -0.003233129752576018, 16.80569473665803, 0.34192456540602983, 0.002597468881904216, -16.803593851698544, 0.7969769479348427, 6.1282065515211055e-06, 0.17680918222229747, -0.7973353746670858, 0.000631910247829976, -0.1783220913709201, -0.8271996313736603, -0.0010643718263670804, 0.16799541571776305, 0.8272751767107316, 0.001474629784397522, -0.16799118151361248, 16.24153318423326, -0.001568007756216815, 0.34263249466364587, -16.239495677843763, 0.0006284779750412037, -0.34065164202448195, 53.74139572955733, 0.0003434528191041513, 0.3411432178179422, 16.256849644892736, -0.00045221939483457857, -0.34161539550288234, 0.0015521008094170606, 1.4362672083570817e-06, 0.0008813161757089738, -0.0015589092666835201, 8.451253586461077e-07, -0.0008780262586679528, -0.0015064399332822358, -2.6893563139074347e-06, 0.0008998379052013008, 0.0015086912186488151, 2.2989404642747414e-06, -0.0009022800043191496, -0.00028598605609226886, -6.973662541813564e-07, 0.0032315706037885344, 0.0002821450092963969, -1.330436626155523e-06, -0.003233129752576018, 0.0003434528191041513, 69.99999862285257, 0.0032511114430238703, -0.00033505460061900255, 1.5139736449404994e-06, -0.0032504001121384744, 0.025912444901292908, -0.0010314798439240176, 0.6488228144617105, -0.020151486945279046, -0.0022790556797946415, -0.6533354970986521, -0.05564455950053451, 0.003747709445435704, 0.6336708424679799, 0.0499823341721182, -0.003508777042875209, -0.6325241463531897, -0.38447953415128405, 0.0008950120337963183, -16.800210198954133, 0.3857376419589178, 0.001540650933702114, 16.80569473665803, 0.3411432178179422, 0.0032511114430238703, 53.17736157322757, -0.3425000577320394, -0.0026151713593670083, 16.820519875519423, -0.7985385699530136, -1.3574220332315465e-05, -0.18069098134110456, 0.7988107149887838, -0.0006457414957242174, 0.18221806702320026, 0.828547800424908, 0.0010643093116289152, -0.1719351957719099, -0.8287229624781952, -0.0014876320445913398, 0.17194568950457978, -16.239744628703985, 0.0015722933792876508, -0.3439587178563211, 16.237616417612784, -0.0006089869188244607, 0.34192456540602983, 16.256849644892736, -0.00033505460061900255, -0.3425000577320394, 53.745181583771476, 0.00045438653335103205, 0.34299663075754566, -0.0012492084461806219, -1.3829667318702288e-06, -0.0013157600111531262, 0.0012518728071665942, -1.1108898878470595e-06, 0.0013137967475451734, 0.0012059828216888883, 2.066579144696845e-06, -0.0013323630035661134, -0.0012110742521865064, -2.226204927613697e-06, 0.0013349846665324562, 0.00040793828318615275, 7.542830841249769e-07, -0.002598591194952012, -0.00040767835205541853, 1.3397389350447366e-06, 0.002597468881904216, -0.00045221939483457857, 1.5139736449404994e-06, -0.0026151713593670083, 0.00045438653335103205, 69.9999990454867, 0.002615635273036575, -0.027923882793782134, 0.0010302034614298008, -0.65021526406198, 0.022156433431803152, 0.0022770610459072072, 0.6547306370699593, 0.057625342710774075, -0.0037469749093430697, -0.6350732316874711, -0.051972662691879834, 0.0035064621721509455, 0.6339301367460589, 0.3849421781286939, -0.0008942273596329814, 16.7980986221272, -0.3862086445614273, -0.0015377595014272574, -16.803593851698544, -0.34161539550288234, -0.0032504001121384744, 16.820519875519423, 0.34299663075754566, 0.002615635273036575, 53.181603076056604]]}, {"__ndarray__": [[24], "float64", [9.88965100120638, 3.1240417167187258, 0.14474011945414575, 1.630087390932185, 1.0413478530738256, 4.217022204683631, 7.389960596532268, 1.041346872919282, 2.3256227461061245, 4.12977912043123, 3.124042169208704, 2.0361390023286985, 1.3737767516290962, 3.124042108944555, 1.745233699679412, 10.14596206451946, 1.0413466701530596, 2.6165276520804515, 4.386096125121194, 1.0413465924975827, 3.926117242312481, 7.133642814163344, 3.12404228887226, 0.43564480949947954]]}, {"__ndarray__": [[24], "float64", [-0.0003344152973948856, -1.1010083468359543e-06, -0.00025707457477421156, 0.0003381315945568099, -6.947124640322378e-07, 0.00025372962287249394, 0.00029773215453503786, 2.054809189356486e-06, -0.00027259555790004993, -0.0003012152629311904, -1.701420583012534e-06, 0.00027360576386214954, 0.00021153383667719554, 5.531625527878441e-07, -0.00024130718199149158, -0.00020860038521323002, 5.660320091350659e-07, 0.00024461993802858136, -0.0002507497295752841, 1.7015132893021665e-06, -0.0002582636204734224, 0.00024758308934554664, -1.3783756467008365e-06, 0.0002572856103759505]]}, 0.2]