[{"__ndarray__": [[24, 24], "float64", [53.80979413192038, 3.6457202103816095e-15, -0.15126133386766097, 16.190205868054935, 6.52147059489135e-15, 0.1512613338488484, 16.19020586892225, -1.3328793375510139e-15, -0.15126133374312986, -16.190205868851223, -1.917013804027615e-15, 0.15126133373812164, -0.6986604444800085, -4.3513996598613456e-15, -0.02162603139985722, 0.6986604444105942, -2.686926598023521e-15, 0.02162603139468089, 0.6986604453087016, 3.2552546650458397e-16, -0.02162603127375748, -0.6986604453168801, -7.506815207475436e-17, 0.02162603130593782, 3.6457202103816095e-15, 70.0, -6.73547659709098e-16, -3.645720210355279e-15, 6.873119298987712e-29, 6.735476598082554e-16, -3.6457202179319644e-15, -1.0200368311437367e-29, -6.735476606309356e-16, 3.645720217308619e-15, -1.760204399923587e-30, 6.73547660848691e-16, -6.638018033298779e-15, -5.001528394438394e-29, 9.4825705111944e-16, 6.638018033718652e-15, -3.823659697416178e-29, -9.482570512246899e-16, 6.6380180264410565e-15, -1.1411996185135622e-29, 9.482570504444915e-16, -6.638018026862103e-15, -2.6455712621191444e-30, -9.482570506144082e-16, -0.15126133386766097, -6.73547659709098e-16, 53.31405254547446, 0.151261333856794, -2.745294951621431e-16, 16.685947454506827, 0.1512613339366769, 6.222526934319041e-16, -16.68594745450567, -0.15126133390905355, -1.2432157547968225e-15, 16.68594745449933, -0.2086405028718279, 3.0050535599609533e-16, 0.6400451822882526, 0.20864050289452726, 6.428025213734515e-16, -0.6400451822903015, 0.20864050292927513, 1.2240990796723733e-15, 0.6400451823008685, -0.2086405029653135, -2.682885767741941e-16, -0.6400451823034959, 16.190205868054935, -3.645720210355279e-15, 0.151261333856794, 53.80979413196977, -6.521470594837014e-15, -0.15126133383798168, -16.190205868897564, 1.332879337190127e-15, 0.15126133373226258, 16.19020586882653, 1.9170138040574414e-15, -0.1512613337272542, 0.6986604443856406, 4.351399659801615e-15, 0.021626031390687472, -0.6986604443162295, 2.686926598084368e-15, -0.02162603138550795, -0.6986604452143339, -3.255254665057931e-16, 0.02162603126458451, 0.6986604452225113, 7.506815231215535e-17, -0.0216260312967661, 6.52147059489135e-15, 6.873119298987712e-29, -2.745294951621431e-16, -6.521470594837014e-15, 70.0, 2.7452949539753643e-16, -6.521470601263018e-15, -1.5450642844067942e-29, -2.7452949614228266e-16, 6.52147060062054e-15, -7.521770844492859e-30, 2.745294960365605e-16, -9.530818582766184e-15, -7.158337664064035e-29, 2.253993230243338e-15, 9.530818583422804e-15, -5.290295979477793e-29, -2.2539932302933324e-15, 9.530818576838414e-15, -1.2219627830703741e-29, 2.2539932296279113e-15, -9.53081857693898e-15, -2.5548810091397335e-30, -2.2539932296988677e-15, 0.1512613338488484, 6.735476598082554e-16, 16.685947454506827, -0.15126133383798168, 2.7452949539753643e-16, 53.3140525455119, -0.15126133391786523, -6.222526934725029e-16, 16.685947454486953, 0.15126133389024093, 1.2432157548178795e-15, -16.685947454480612, 0.2086405029151096, -3.0050535621388257e-16, -0.6400451822963761, -0.20864050293780922, -6.428025214805198e-16, 0.6400451822984224, -0.20864050297255404, -1.2240990796855126e-15, -0.6400451823089899, 0.2086405030085943, 2.682885768124196e-16, 0.6400451823116166, 16.19020586892225, -3.6457202179319644e-15, 0.1512613339366769, -16.190205868897564, -6.521470601263018e-15, -0.15126133391786523, 53.80979413023514, 1.3328793416093798e-15, 0.15126133381214732, 16.19020586969385, 1.9170138031958e-15, -0.15126133380713866, 0.6986604424119577, 4.351399665421185e-15, 0.021626031618918296, -0.6986604423425459, 2.686926603506255e-15, -0.021626031613741853, -0.6986604432406502, -3.255254648073716e-16, 0.02162603149281611, 0.6986604432488305, 7.506814992200364e-17, -0.021626031524997646, -1.3328793375510139e-15, -1.0200368311437367e-29, 6.222526934319041e-16, 1.332879337190127e-15, -1.5450642844067942e-29, -6.222526934725029e-16, 1.3328793416093798e-15, 70.0, 6.222526939718917e-16, -1.332879341257458e-15, 1.2518926445629996e-30, -6.222526938618687e-16, 1.1488621921048212e-15, 1.1046222705363516e-29, -5.503407634183927e-17, -1.1488621918738001e-15, 8.079029826688593e-30, 5.5034076309469743e-17, -1.1488621878358105e-15, 1.8989259461035653e-30, -5.50340759214833e-17, 1.1488621881245423e-15, -4.245839896611076e-31, 5.503407596642727e-17, -0.15126133374312986, -6.735476606309356e-16, -16.68594745450567, 0.15126133373226258, -2.7452949614228266e-16, 16.685947454486953, 0.15126133381214732, 6.222526939718917e-16, 53.314052545514215, -0.15126133378452203, -1.2432157548378012e-15, 16.685947454479454, -0.20864050311421128, 3.0050535684071746e-16, 0.640045182335435, 0.20864050313691224, 6.4280252207172855e-16, -0.6400451823374806, 0.20864050317165914, 1.2240990798421971e-15, 0.6400451823480474, -0.2086405032076976, -2.6828857710939594e-16, -0.6400451823506756, -16.190205868851223, 3.645720217308619e-15, -0.15126133390905355, 16.19020586882653, 6.52147060062054e-15, 0.15126133389024093, 16.19020586969385, -1.332879341257458e-15, -0.15126133378452203, 53.80979413037719, -1.9170138032627375e-15, 0.15126133377951367, -0.6986604425919264, -4.351399664861239e-15, -0.021626031592764827, 0.6986604425225125, -2.686926603036132e-15, 0.02162603158758708, 0.6986604434206201, 3.2552546494190455e-16, -0.021626031466664447, -0.6986604434287944, -7.506815013543745e-17, 0.021626031498845538, -1.917013804027615e-15, -1.760204399923587e-30, -1.2432157547968225e-15, 1.9170138040574414e-15, -7.521770844492859e-30, 1.2432157548178795e-15, 1.9170138031958e-15, 1.2518926445629996e-30, -1.2432157548378012e-15, -1.9170138032627375e-15, 70.0, 1.2432157549940592e-15, 9.953882071857396e-16, 4.487181868044924e-30, -1.3393293856667418e-15, -9.953882071885046e-16, 1.17173717971462e-30, 1.3393293856279997e-15, -9.953882078351088e-16, -4.218348477218792e-30, -1.3393293857109304e-15, 9.95388207759804e-16, -4.280370634520315e-31, 1.3393293856657206e-15, 0.15126133373812164, 6.73547660848691e-16, 16.68594745449933, -0.1512613337272542, 2.745294960365605e-16, -16.685947454480612, -0.15126133380713866, -6.222526938618687e-16, 16.685947454479454, 0.15126133377951367, 1.2432157549940592e-15, 53.31405254552689, 0.20864050319968658, -3.0050535675092384e-16, -0.6400451823177706, -0.2086405032223888, -6.428025221552672e-16, 0.6400451823198179, -0.20864050325713468, -1.2240990800303874e-15, -0.640045182330384, 0.20864050329317224, 2.6828857688465204e-16, 0.6400451823330123, -0.6986604444800085, -6.638018033298779e-15, -0.2086405028718279, 0.6986604443856406, -9.530818582766184e-15, 0.2086405029151096, 0.6986604424119577, 1.1488621921048212e-15, -0.20864050311421128, -0.6986604425919264, 9.953882071857396e-16, 0.20864050319968658, 53.60116016156516, 6.813291255744956e-15, -0.2955260324797396, 16.398839838715002, 4.959817310963038e-15, 0.29552603240470193, 16.39883983668115, 9.27944188714658e-16, -0.29552603262096006, -16.39883983676716, 6.512635912719495e-16, 0.2955260325582845, -4.3513996598613456e-15, -5.001528394438394e-29, 3.0050535599609533e-16, 4.351399659801615e-15, -7.158337664064035e-29, -3.0050535621388257e-16, 4.351399665421185e-15, 1.1046222705363516e-29, 3.0050535684071746e-16, -4.351399664861239e-15, 4.487181868044924e-30, -3.0050535675092384e-16, 6.813291255744956e-15, 70.0, -1.5393763944468792e-15, -6.8132912562868314e-15, 3.8544405128397526e-29, 1.5393763944952024e-15, -6.813291250552653e-15, 9.5756939509826e-30, -1.5393763939157194e-15, 6.813291250646e-15, 1.9177046712240698e-30, 1.539376393986597e-15, -0.02162603139985722, 9.4825705111944e-16, 0.6400451822882526, 0.021626031390687472, 2.253993230243338e-15, -0.6400451822963761, 0.021626031618918296, -5.503407634183927e-17, 0.640045182335435, -0.021626031592764827, -1.3393293856667418e-15, -0.6400451823177706, -0.2955260324797396, -1.5393763944468792e-15, 53.162244441445104, 0.29552603250954107, -7.30989971868341e-16, 16.837755558551002, 0.29552603273544953, 8.278878756545612e-16, -16.83775555849703, -0.2955260327500065, 3.2712635548554657e-17, 16.83775555850426, 0.6986604444105942, 6.638018033718652e-15, 0.20864050289452726, -0.6986604443162295, 9.530818583422804e-15, -0.20864050293780922, -0.6986604423425459, -1.1488621918738001e-15, 0.20864050313691224, 0.6986604425225125, -9.953882071885046e-16, -0.2086405032223888, 16.398839838715002, -6.8132912562868314e-15, 0.29552603250954107, 53.601160161004856, -4.959817311333187e-15, -0.2955260324345048, -16.398839836961308, -9.27944188839621e-16, 0.2955260326507637, 16.398839837047316, -6.512635914671619e-16, -0.2955260325880916, -2.686926598023521e-15, -3.823659697416178e-29, 6.428025213734515e-16, 2.686926598084368e-15, -5.290295979477793e-29, -6.428025214805198e-16, 2.686926603506255e-15, 8.079029826688593e-30, 6.4280252207172855e-16, -2.686926603036132e-15, 1.17173717971462e-30, -6.428025221552672e-16, 4.959817310963038e-15, 3.8544405128397526e-29, -7.30989971868341e-16, -4.959817311333187e-15, 70.0, 7.309899719175277e-16, -4.959817306024715e-15, 8.932948940418195e-30, -7.309899713703958e-16, 4.959817306289089e-15, 1.7000921704528927e-30, 7.309899714858819e-16, 0.02162603139468089, -9.482570512246899e-16, -0.6400451822903015, -0.02162603138550795, -2.2539932302933324e-15, 0.6400451822984224, -0.021626031613741853, 5.5034076309469743e-17, -0.6400451823374806, 0.02162603158758708, 1.3393293856279997e-15, 0.6400451823198179, 0.29552603240470193, 1.5393763944952024e-15, 16.837755558551002, -0.2955260324345048, 7.309899719175277e-16, 53.16224444145288, -0.2955260326604148, -8.278878756059052e-16, 16.83775555849315, 0.2955260326749724, -3.271263546283447e-17, -16.83775555850037, 0.6986604453087016, 6.6380180264410565e-15, 0.20864050292927513, -0.6986604452143339, 9.530818576838414e-15, -0.20864050297255404, -0.6986604432406502, -1.1488621878358105e-15, 0.20864050317165914, 0.6986604434206201, -9.953882078351088e-16, -0.20864050325713468, 16.39883983668115, -6.813291250552653e-15, 0.29552603273544953, -16.398839836961308, -4.959817306024715e-15, -0.2955260326604148, 53.60116016507254, -9.279441872933014e-16, 0.2955260328766728, 16.39883983501346, -6.512635937409057e-16, -0.29552603281399975, 3.2552546650458397e-16, -1.1411996185135622e-29, 1.2240990796723733e-15, -3.255254665057931e-16, -1.2219627830703741e-29, -1.2240990796855126e-15, -3.255254648073716e-16, 1.8989259461035653e-30, 1.2240990798421971e-15, 3.2552546494190455e-16, -4.218348477218792e-30, -1.2240990800303874e-15, 9.27944188714658e-16, 9.5756939509826e-30, 8.278878756545612e-16, -9.27944188839621e-16, 8.932948940418195e-30, -8.278878756059052e-16, -9.279441872933014e-16, 70.0, 8.278878757783619e-16, 9.279441874030015e-16, 8.476999268092897e-31, -8.278878757248476e-16, -0.02162603127375748, 9.482570504444915e-16, 0.6400451823008685, 0.02162603126458451, 2.2539932296279113e-15, -0.6400451823089899, 0.02162603149281611, -5.50340759214833e-17, 0.6400451823480474, -0.021626031466664447, -1.3393293857109304e-15, -0.640045182330384, -0.29552603262096006, -1.5393763939157194e-15, -16.83775555849703, 0.2955260326507637, -7.309899713703958e-16, 16.83775555849315, 0.2955260328766728, 8.278878757783619e-16, 53.162244441560816, -0.29552603289122853, 3.271263529874124e-17, 16.837755558446407, -0.6986604453168801, -6.638018026862103e-15, -0.2086405029653135, 0.6986604452225113, -9.53081857693898e-15, 0.2086405030085943, 0.6986604432488305, 1.1488621881245423e-15, -0.2086405032076976, -0.6986604434287944, 9.95388207759804e-16, 0.20864050329317224, -16.39883983676716, 6.813291250646e-15, -0.2955260327500065, 16.398839837047316, 4.959817306289089e-15, 0.2955260326749724, 16.39883983501346, 9.279441874030015e-16, -0.29552603289122853, 53.601160164900534, 6.512635936175211e-16, 0.29552603282855655, -7.506815207475436e-17, -2.6455712621191444e-30, -2.682885767741941e-16, 7.506815231215535e-17, -2.5548810091397335e-30, 2.682885768124196e-16, 7.506814992200364e-17, -4.245839896611076e-31, -2.6828857710939594e-16, -7.506815013543745e-17, -4.280370634520315e-31, 2.6828857688465204e-16, 6.512635912719495e-16, 1.9177046712240698e-30, 3.2712635548554657e-17, -6.512635914671619e-16, 1.7000921704528927e-30, -3.271263546283447e-17, -6.512635937409057e-16, 8.476999268092897e-31, 3.271263529874124e-17, 6.512635936175211e-16, 70.0, -3.2712635292571364e-17, 0.02162603130593782, -9.482570506144082e-16, -0.6400451823034959, -0.0216260312967661, -2.2539932296988677e-15, 0.6400451823116166, -0.021626031524997646, 5.503407596642727e-17, -0.6400451823506756, 0.021626031498845538, 1.3393293856657206e-15, 0.6400451823330123, 0.2955260325582845, 1.539376393986597e-15, 16.83775555850426, -0.2955260325880916, 7.309899714858819e-16, -16.83775555850037, -0.29552603281399975, -8.278878757248476e-16, 16.837755558446407, 0.29552603282855655, -3.2712635292571364e-17, 53.16224444154636]]}, {"__ndarray__": [[24], "float64", [10.011289899567448, 3.164817447070687, 0.14632406255075184, 1.6588071052809716, 1.0549391490235625, 4.272368433290049, 7.49385560770497, 1.0549391490235625, 2.355670310471122, 4.176241397143423, 3.164817447070687, 2.0630221853696886, 1.4179110226678326, 3.164817447070687, 1.7292366542798796, 10.252185982180631, 1.0549391490235625, 2.6894558415609016, 4.417137479756227, 1.0549391490235625, 3.938582902200271, 7.2529595250922005, 3.164817447070687, 0.4801095936405125]]}, {"__ndarray__": [[24], "float64", [-0.00022584433767537356, 8.656905677204505e-18, -6.92932701562446e-06, 0.0002258443376918336, 9.89608747357993e-18, 6.9293269696221954e-06, 0.00022584433986568334, -6.3662602717802904e-18, -6.929326751139954e-06, -0.00022584433965276663, -6.1065171737952934e-18, 6.929326673383359e-06, 0.00060373663193351, -6.553534359318066e-18, -3.223322851436466e-05, -0.0006037366321729719, -6.81492601021602e-18, 3.223322857875911e-05, -0.0006037366300282794, 3.1890700323586617e-18, -3.223322833653653e-05, 0.0006037366300383675, 5.164937891581098e-18, 3.223322839590202e-05]]}, 0.2]