[{"__ndarray__": [[24, 24], "float64", [53.750420565990034, 5.643041975777706e-15, -0.15156093545569427, 16.249579434042406, 3.6883775300590485e-15, 0.15156093547101038, 16.249579434079394, 1.2771749581226654e-14, -0.15156093545326335, -16.249579434060923, -7.802192168036166e-15, 0.15156093545324423, -0.6987843450064641, -4.855232008305962e-15, -0.018399075624833693, 0.6987843450077101, -3.99387261841524e-15, 0.018399075631279953, 0.6987843450531753, 6.982248420338768e-15, -0.01839907562852275, -0.6987843450367148, -1.277428196812486e-14, 0.018399075623882925, 5.643041975777706e-15, 70.0, -6.743008589959021e-16, -5.643041981833515e-15, -6.481702060955158e-29, 6.743008585835771e-16, -5.64304195437649e-15, 1.085471728136938e-28, -6.743008547090884e-16, 5.6430419565675e-15, -2.231334054293429e-28, 6.743008558333067e-16, 9.630564646732428e-15, 1.7399000985088987e-28, 2.0011659712316683e-15, -9.630564649011172e-15, -3.8394324653791445e-28, -2.0011659709085446e-15, -9.630564623416697e-15, 1.9966982062428823e-28, 2.0011659730087605e-15, 9.630564627723003e-15, -2.3710859987835967e-28, -2.0011659735015036e-15, -0.15156093545569427, -6.743008589959021e-16, 53.244634790691755, 0.15156093513676833, 4.6293430007253314e-15, 16.7553652092578, 0.15156093654699987, 2.8306094127415872e-15, -16.755365209072544, -0.15156093640621945, 2.920184292750223e-14, 16.755365209126474, -0.15800923355733776, -1.0782836113831866e-14, 0.6063043710832344, 0.15800923346041662, 4.448155089072124e-15, -0.6063043710476661, 0.15800923478856543, -2.667906998745341e-14, 0.6063043711854217, -0.15800923452628846, -2.33891855402051e-15, -0.606304371195683, 16.249579434042406, -5.643041981833515e-15, 0.15156093513676833, 53.75042056592513, -3.688377531239732e-15, -0.15156093515208408, -16.249579434111848, -1.2771749575956248e-14, 0.15156093513433733, 16.249579434093366, 7.802192173155638e-15, -0.15156093513431815, 0.6987843455154998, 4.855232008158076e-15, 0.018399075472473627, -0.698784345516746, 3.993872624196993e-15, -0.018399075478921983, -0.6987843455622108, -6.982248424612448e-15, 0.0183990754761613, 0.69878434554575, 1.277428196420512e-14, -0.018399075471523, 3.6883775300590485e-15, -6.481702060955158e-29, 4.6293430007253314e-15, -3.688377531239732e-15, 70.0, -4.629343000559012e-15, -3.688377530629917e-15, 9.926057099536936e-29, 4.629343000964543e-15, 3.688377530736288e-15, 2.3519522442128617e-28, -4.629343000148948e-15, -5.1720073748104185e-15, -1.3545867314219127e-28, 2.8995388400962158e-15, 5.172007374208911e-15, 8.546545986652383e-29, -2.899538839964441e-15, 5.1720073741840645e-15, -2.148676020701996e-28, 2.8995388395679527e-15, -5.17200737476467e-15, -7.221620222255229e-29, -2.8995388402088328e-15, 0.15156093547101038, 6.743008585835771e-16, 16.7553652092578, -0.15156093515208408, -4.629343000559012e-15, 53.24463479079267, -0.15156093656231598, -2.830609411517478e-15, 16.75536520902208, 0.1515609364215358, -2.92018429265406e-14, -16.755365209076015, 0.15800923366652625, 1.078283611347228e-14, -0.6063043710921561, -0.15800923356960506, -4.448155088654273e-15, 0.606304371056587, -0.15800923489775293, 2.667906998653894e-14, -0.6063043711943434, 0.15800923463547384, 2.338918552974422e-15, 0.6063043712046048, 16.249579434079394, -5.64304195437649e-15, 0.15156093654699987, -16.249579434111848, -3.688377530629917e-15, -0.15156093656231598, 53.75042056585116, -1.2771749607648437e-14, 0.15156093654456954, 16.249579434130354, 7.802192144832365e-15, -0.1515609365445504, 0.6987843432756934, 4.855232015766481e-15, 0.01839907652423103, -0.6987843432769394, 3.993872596889993e-15, -0.018399076530679362, -0.6987843433224048, -6.982248400088632e-15, 0.018399076527920756, 0.6987843433059447, 1.2774281988583451e-14, -0.01839907652328039, 1.2771749581226654e-14, 1.085471728136938e-28, 2.8306094127415872e-15, -1.2771749575956248e-14, 9.926057099536936e-29, -2.830609411517478e-15, -1.2771749607648437e-14, 70.0, 2.830609407462862e-15, 1.2771749603893112e-14, 2.1874052528526357e-28, -2.83060940812204e-15, -8.501332833109633e-16, -1.2060773793251735e-28, -1.597199676867689e-15, 8.501332856880079e-16, -6.221550337723622e-29, 1.5971996763868223e-15, 8.501332549915652e-16, -2.0253006932341673e-28, -1.5971996796791159e-15, -8.501332611771703e-16, -4.2789864699298445e-28, 1.5971996795541532e-15, -0.15156093545326335, -6.743008547090884e-16, -16.755365209072544, 0.15156093513433733, 4.629343000964543e-15, 16.75536520902208, 0.15156093654456954, 2.830609407462862e-15, 53.2446347911632, -0.15156093640378923, 2.920184292223655e-14, 16.755365208890755, -0.15800923394751765, -1.0782836112778152e-14, 0.6063043712423495, 0.15800923385059845, 4.4481550848278195e-15, -0.6063043712067793, 0.15800923517874488, -2.6679069982782934e-14, 0.6063043713445363, -0.15800923491646623, -2.338918549924357e-15, -0.6063043713547975, -16.249579434060923, 5.6430419565675e-15, -0.15156093640621945, 16.249579434093366, 3.688377530736288e-15, 0.1515609364215358, 16.249579434130354, 1.2771749603893112e-14, -0.15156093640378923, 53.75042056588813, -7.802192147469369e-15, 0.1515609364037704, -0.6987843435195875, -4.855232015024572e-15, -0.018399076415748675, 0.6987843435208342, -3.993872599077228e-15, 0.018399076422197423, 0.6987843435662999, 6.982248402351834e-15, -0.018399076419437343, -0.6987843435498384, -1.2774281985571628e-14, 0.01839907641479757, -7.802192168036166e-15, -2.231334054293429e-28, 2.920184292750223e-14, 7.802192173155638e-15, 2.3519522442128617e-28, -2.92018429265406e-14, 7.802192144832365e-15, 2.1874052528526357e-28, 2.920184292223655e-14, -7.802192147469369e-15, 70.0, -2.920184292312315e-14, -6.924394244158295e-15, -5.142229355724968e-28, 1.9475354859553113e-14, 6.9243942444996134e-15, 3.3934640300966453e-28, -1.9475354860084203e-14, 6.924394217798483e-15, -1.2070141260886901e-27, 1.9475354856823298e-14, -6.9243942233795856e-15, -1.4632844041727698e-28, -1.9475354856793214e-14, 0.15156093545324423, 6.743008558333067e-16, 16.755365209126474, -0.15156093513431815, -4.629343000148948e-15, -16.755365209076015, -0.1515609365445504, -2.83060940812204e-15, 16.755365208890755, 0.1515609364037704, -2.920184292312315e-14, 53.24463479105534, 0.15800923384788323, 1.0782836112124379e-14, -0.6063043712377678, -0.15800923375096354, -4.44815508584839e-15, 0.6063043712021982, -0.1580092350791084, 2.6679069983493603e-14, -0.6063043713399555, 0.15800923481683088, 2.3389185503637114e-15, 0.6063043713502165, -0.6987843450064641, 9.630564646732428e-15, -0.15800923355733776, 0.6987843455154998, -5.1720073748104185e-15, 0.15800923366652625, 0.6987843432756934, -8.501332833109633e-16, -0.15800923394751765, -0.6987843435195875, -6.924394244158295e-15, 0.15800923384788323, 53.511309062277114, 1.1730470179791401e-14, -0.2630178345510237, 16.488690937890674, -1.0089603621156912e-14, 0.26301783452408883, 16.488690935834587, 6.2911632180751254e-15, -0.2630178347168816, -16.488690936228288, -3.2995453609345578e-15, 0.2630178347548218, -4.855232008305962e-15, 1.7399000985088987e-28, -1.0782836113831866e-14, 4.855232008158076e-15, -1.3545867314219127e-28, 1.078283611347228e-14, 4.855232015766481e-15, -1.2060773793251735e-28, -1.0782836112778152e-14, -4.855232015024572e-15, -5.142229355724968e-28, 1.0782836112124379e-14, 1.1730470179791401e-14, 70.0, -7.881123933959155e-15, -1.1730470179908314e-14, -2.1429130168396196e-28, 7.881123933917734e-15, -1.173047017208754e-14, 4.690932953205247e-28, -7.881123932826567e-15, 1.1730470173859915e-14, 5.451710842379385e-29, 7.881123933375422e-15, -0.018399075624833693, 2.0011659712316683e-15, 0.6063043710832344, 0.018399075472473627, 2.8995388400962158e-15, -0.6063043710921561, 0.01839907652423103, -1.597199676867689e-15, 0.6063043712423495, -0.018399076415748675, 1.9475354859553113e-14, -0.6063043712377678, -0.2630178345510237, -7.881123933959155e-15, 53.126408565170664, 0.2630178344951026, 1.6156187276118043e-15, 16.8735914348618, 0.2630178355170525, -1.7808201949691277e-14, -16.873591434763945, -0.2630178353040384, 1.5000992609459501e-15, 16.873591434746235, 0.6987843450077101, -9.630564649011172e-15, 0.15800923346041662, -0.698784345516746, 5.172007374208911e-15, -0.15800923356960506, -0.6987843432769394, 8.501332856880079e-16, 0.15800923385059845, 0.6987843435208342, 6.9243942444996134e-15, -0.15800923375096354, 16.488690937890674, -1.1730470179908314e-14, 0.2630178344951026, 53.511309061941525, 1.0089603623459133e-14, -0.2630178344681676, -16.48869093600238, -6.291163218103572e-15, 0.2630178346609607, 16.488690936396072, 3.2995453590937793e-15, -0.26301783469890044, -3.99387261841524e-15, -3.8394324653791445e-28, 4.448155089072124e-15, 3.993872624196993e-15, 8.546545986652383e-29, -4.448155088654273e-15, 3.993872596889993e-15, -6.221550337723622e-29, 4.4481550848278195e-15, -3.993872599077228e-15, 3.3934640300966453e-28, -4.44815508584839e-15, -1.0089603621156912e-14, -2.1429130168396196e-28, 1.6156187276118043e-15, 1.0089603623459133e-14, 70.0, -1.6156187279180906e-15, 1.0089603597848148e-14, -3.0663381249409623e-28, 1.6156187257452695e-15, -1.0089603602085846e-14, 1.750525453792881e-28, -1.6156187253571105e-15, 0.018399075631279953, -2.0011659709085446e-15, -0.6063043710476661, -0.018399075478921983, -2.899538839964441e-15, 0.606304371056587, -0.018399076530679362, 1.5971996763868223e-15, -0.6063043712067793, 0.018399076422197423, -1.9475354860084203e-14, 0.6063043712021982, 0.26301783452408883, 7.881123933917734e-15, 16.8735914348618, -0.2630178344681676, -1.6156187279180906e-15, 53.12640856510573, -0.2630178354901158, 1.7808201950176085e-14, 16.87359143479642, 0.2630178352770999, -1.5000992605748668e-15, -16.87359143477871, 0.6987843450531753, -9.630564623416697e-15, 0.15800923478856543, -0.6987843455622108, 5.1720073741840645e-15, -0.15800923489775293, -0.6987843433224048, 8.501332549915652e-16, 0.15800923517874488, 0.6987843435662999, 6.924394217798483e-15, -0.1580092350791084, 16.488690935834587, -1.173047017208754e-14, 0.2630178355170525, -16.48869093600238, 1.0089603597848148e-14, -0.2630178354901158, 53.511309066053705, -6.291163194846469e-15, 0.26301783568290954, 16.488690934339985, 3.2995453829564004e-15, -0.26301783572085286, 6.982248420338768e-15, 1.9966982062428823e-28, -2.667906998745341e-14, -6.982248424612448e-15, -2.148676020701996e-28, 2.667906998653894e-14, -6.982248400088632e-15, -2.0253006932341673e-28, -2.6679069982782934e-14, 6.982248402351834e-15, -1.2070141260886901e-27, 2.6679069983493603e-14, 6.2911632180751254e-15, 4.690932953205247e-28, -1.7808201949691277e-14, -6.291163218103572e-15, -3.0663381249409623e-28, 1.7808201950176085e-14, -6.291163194846469e-15, 70.0, -1.7808201947140198e-14, 6.291163199894138e-15, 1.3743858086662185e-28, 1.7808201947232672e-14, -0.01839907562852275, 2.0011659730087605e-15, 0.6063043711854217, 0.0183990754761613, 2.8995388395679527e-15, -0.6063043711943434, 0.018399076527920756, -1.5971996796791159e-15, 0.6063043713445363, -0.018399076419437343, 1.9475354856823298e-14, -0.6063043713399555, -0.2630178347168816, -7.881123932826567e-15, -16.873591434763945, 0.2630178346609607, 1.6156187257452695e-15, 16.87359143479642, 0.26301783568290954, -1.7808201947140198e-14, 53.12640856530143, -0.26301783546989455, 1.5000992632407015e-15, 16.873591434680854, -0.6987843450367148, 9.630564627723003e-15, -0.15800923452628846, 0.69878434554575, -5.17200737476467e-15, 0.15800923463547384, 0.6987843433059447, -8.501332611771703e-16, -0.15800923491646623, -0.6987843435498384, -6.9243942233795856e-15, 0.15800923481683088, -16.488690936228288, 1.1730470173859915e-14, -0.2630178353040384, 16.488690936396072, -1.0089603602085846e-14, 0.2630178352770999, 16.488690934339985, 6.291163199894138e-15, -0.26301783546989455, 53.51130906526631, -3.299545377930913e-15, 0.2630178355078345, -1.277428196812486e-14, -2.3710859987835967e-28, -2.33891855402051e-15, 1.277428196420512e-14, -7.221620222255229e-29, 2.338918552974422e-15, 1.2774281988583451e-14, -4.2789864699298445e-28, -2.338918549924357e-15, -1.2774281985571628e-14, -1.4632844041727698e-28, 2.3389185503637114e-15, -3.2995453609345578e-15, 5.451710842379385e-29, 1.5000992609459501e-15, 3.2995453590937793e-15, 1.750525453792881e-28, -1.5000992605748668e-15, 3.2995453829564004e-15, 1.3743858086662185e-28, 1.5000992632407015e-15, -3.299545377930913e-15, 70.0, -1.5000992630051926e-15, 0.018399075623882925, -2.0011659735015036e-15, -0.606304371195683, -0.018399075471523, -2.8995388402088328e-15, 0.6063043712046048, -0.01839907652328039, 1.5971996795541532e-15, -0.6063043713547975, 0.01839907641479757, -1.9475354856793214e-14, 0.6063043713502165, 0.2630178347548218, 7.881123933375422e-15, 16.873591434746235, -0.26301783469890044, -1.6156187253571105e-15, -16.87359143477871, -0.26301783572085286, 1.7808201947232672e-14, 16.873591434680854, 0.2630178355078345, -1.5000992630051926e-15, 53.12640856533685]]}, {"__ndarray__": [[24], "float64", [10.115839403332183, 3.1993199167612496, 0.1544118534742487, 1.6814836342749468, 1.06643997225375, 4.312452711201321, 7.580145153077926, 1.06643997225375, 2.387844135811908, 4.217177884528947, 3.1993199167612496, 2.0790204288635445, 1.4623182746800256, 3.1993199167612496, 1.7217349778329907, 10.335004762926951, 1.06643997225375, 2.7451295868425203, 4.436343244123064, 1.06643997225375, 3.9551672601707017, 7.360979793483781, 3.1993199167612496, 0.5116973045048081]]}, {"__ndarray__": [[24], "float64", [1.0592960425567875e-05, 1.2331429182779277e-15, -0.00023296396512189276, -1.0592961524266806e-05, -9.555269954592536e-16, 0.00023296396489938835, -1.0592956613155141e-05, -1.0451662082755424e-15, -0.00023296396427987729, 1.0592957127106978e-05, 1.2135703985388541e-15, 0.00023296396448411083, 0.00040973599955844604, 6.236673141250722e-16, -6.791199247822095e-05, -0.00040973599992547753, -8.932935286360586e-16, 6.79119925840238e-05, -0.0004097359953175875, -8.924069767035165e-16, -6.791199213517353e-05, 0.00040973599626934615, 7.103305342365084e-16, 6.791199204763407e-05]]}, 0.2]