[{"__ndarray__": [[24, 24], "float64", [54.03892214367394, -5.139443951140651e-14, -0.23414912946084435, 15.961077856583247, -2.892501324699893e-14, 0.23414912952643013, 15.961077856370887, 9.71212075283167e-15, -0.23414912943414512, -15.96107785634297, -1.00642838851038e-14, 0.23414912945642152, -0.9384914320590623, 1.9023976459430803e-14, -0.07543269470244077, 0.9384914319598153, 4.757126428683599e-14, 0.07543269463192495, 0.9384914318563349, 2.2950105157768148e-14, -0.07543269466985844, -0.938491432012839, -8.437232701147589e-15, 0.0754326946359094, -5.139443951140651e-14, 70.0, -4.0844903941541904e-14, 5.139443951352298e-14, 3.138798694388284e-27, 4.0844903942349275e-14, 5.1394439512766895e-14, 7.624046678452252e-28, -4.0844903941432316e-14, -5.139443951228266e-14, 1.8961263998602645e-28, 4.0844903941706814e-14, 4.3788734717050597e-14, -1.9216719384386475e-27, -2.8453207917643323e-14, -4.378873471982452e-14, -4.7732020017416545e-27, 2.8453207917115935e-14, -4.37887347184338e-14, -1.4716907698002279e-27, -2.8453207917150544e-14, 4.378873471646655e-14, -8.906941084368019e-28, 2.8453207916947037e-14, -0.23414912946084435, -4.0844903941541904e-14, 53.328046877837686, 0.23414912970543802, -3.292885332424222e-14, 16.671953122225506, 0.23414912950909503, -1.6716911819769e-14, -16.67195312213198, -0.2341491294722801, 5.987198192506479e-15, 16.671953122152843, -0.15666665513385797, 2.0997312524229976e-14, 0.608541778782977, 0.1566666550737577, 4.0732511301594855e-14, -0.6085417788383651, 0.15666665490048248, 5.274690325578276e-15, 0.6085417788141787, -0.1566666550948822, 1.8126610731803952e-14, -0.6085417788461589, 15.961077856583247, 5.139443951352298e-14, 0.23414912970543802, 54.03892214315957, 2.892501324205141e-14, -0.23414912977102442, -15.961077856628062, -9.712120756900045e-15, 0.2341491296787385, 15.961077856600145, 1.0064283883736229e-14, -0.23414912970101517, 0.938491432017049, -1.9023976454152538e-14, 0.07543269493766808, -0.9384914319177988, -4.757126428809004e-14, -0.07543269486715304, -0.9384914318143216, -2.2950105157038145e-14, 0.07543269490508542, 0.9384914319708237, 8.437232704627623e-15, -0.0754326948711376, -2.892501324699893e-14, 3.138798694388284e-27, -3.292885332424222e-14, 2.892501324205141e-14, 70.0, 3.2928853322538324e-14, 2.8925013247190774e-14, 3.4834273754627853e-28, -3.2928853324965977e-14, -2.8925013246463066e-14, -8.214904313523704e-29, 3.292885332444869e-14, 3.016347562200549e-14, -1.6224566206510003e-27, -3.0247580980591287e-14, -3.016347562368066e-14, -2.995640360108403e-27, 3.024758098137451e-14, -3.01634756174105e-14, -7.492393223038041e-28, -3.0247580980895964e-14, 3.0163475620850073e-14, -4.970828737675953e-28, 3.024758098159152e-14, 0.23414912952643013, 4.0844903942349275e-14, 16.671953122225506, -0.23414912977102442, 3.2928853322538324e-14, 53.32804687771132, -0.234149129574682, 1.671691181839893e-14, 16.671953122195166, 0.2341491295378676, -5.987198193265283e-15, -16.671953122216024, 0.15666665512097233, -2.0997312522706266e-14, -0.6085417787192219, -0.1566666550608719, -4.0732511302154025e-14, 0.6085417787746104, -0.1566666548875963, -5.2746903249790554e-15, -0.6085417787504224, 0.15666665508199573, -1.812661073035925e-14, 0.6085417787824046, 15.961077856370887, 5.1394439512766895e-14, 0.23414912950909503, -15.961077856628062, 2.8925013247190774e-14, -0.234149129574682, 54.0389221435843, -9.712120754675917e-15, 0.23414912948239602, 15.961077856387782, 1.0064283886927062e-14, -0.23414912950467276, 0.9384914320857745, -1.902397645955493e-14, 0.07543269476793668, -0.938491431986526, -4.7571264288106813e-14, -0.07543269469742275, -0.9384914318830468, -2.2950105159339862e-14, 0.0754326947353561, 0.93849143203955, 8.437232702626532e-15, -0.07543269470140826, 9.71212075283167e-15, 7.624046678452252e-28, -1.6716911819769e-14, -9.712120756900045e-15, 3.4834273754627853e-28, 1.671691181839893e-14, -9.712120754675917e-15, 70.0, -1.6716911820142873e-14, 9.712120753452232e-15, -8.2157646909888e-29, 1.6716911819687694e-14, 5.4107331062655385e-15, -1.4229873893724684e-28, -7.413546575135862e-15, -5.410733102716119e-15, -8.32444864615592e-28, 7.413546576270115e-15, -5.4107331026860806e-15, -1.4014816690553948e-28, -7.413546575865469e-15, 5.410733106403062e-15, -5.88992717936712e-28, 7.413546576515856e-15, -0.23414912943414512, -4.0844903941432316e-14, -16.67195312213198, 0.2341491296787385, -3.2928853324965977e-14, 16.671953122195166, 0.23414912948239602, -1.6716911820142873e-14, 53.32804687789836, -0.23414912944558186, 5.9871981922295476e-15, 16.6719531221225, -0.1566666551238175, 2.099731252501901e-14, 0.6085417788117928, 0.15666665506371635, 4.073251130154043e-14, -0.6085417788671803, 0.15666665489044046, 5.2746903257392886e-15, 0.6085417788429933, -0.156666655084841, 1.8126610732167516e-14, -0.6085417788749747, -15.96107785634297, -5.139443951228266e-14, -0.2341491294722801, 15.961077856600145, -2.8925013246463066e-14, 0.2341491295378676, 15.961077856387782, 9.712120753452232e-15, -0.23414912944558186, 54.038922143640136, -1.0064283886020794e-14, 0.23414912946785763, -0.9384914320939914, 1.9023976458908284e-14, -0.07543269472118785, 0.9384914319947419, 4.757126428791201e-14, 0.07543269465067431, 0.9384914318912646, 2.2950105158456186e-14, -0.07543269468860683, -0.9384914320477664, -8.437232701783737e-15, 0.0754326946546591, -1.00642838851038e-14, 1.8961263998602645e-28, 5.987198192506479e-15, 1.0064283883736229e-14, -8.214904313523704e-29, -5.987198193265283e-15, 1.0064283886927062e-14, -8.2157646909888e-29, 5.9871981922295476e-15, -1.0064283886020794e-14, 70.0, -5.987198192252078e-15, -8.837033859189184e-16, 1.1589808333003648e-28, 7.441805316007568e-15, 8.837033837547563e-16, -1.8870301845270464e-28, -7.441805315714752e-15, 8.837033886477391e-16, -2.085959697995863e-28, 7.441805315909263e-15, -8.837033871514568e-16, 7.845543539806074e-29, -7.44180531566489e-15, 0.23414912945642152, 4.0844903941706814e-14, 16.671953122152843, -0.23414912970101517, 3.292885332444869e-14, -16.671953122216024, -0.23414912950467276, 1.6716911819687694e-14, 16.6719531221225, 0.23414912946785763, -5.987198192252078e-15, 53.32804687785665, 0.15666665513434086, -2.099731252445278e-14, -0.608541778789363, -0.15666665507424138, -4.073251130172686e-14, 0.6085417788447506, -0.15666665490096543, -5.274690325799587e-15, -0.6085417788205656, 0.15666665509536398, -1.812661073176984e-14, 0.6085417788525462, -0.9384914320590623, 4.3788734717050597e-14, -0.15666665513385797, 0.938491432017049, 3.016347562200549e-14, 0.15666665512097233, 0.9384914320857745, 5.4107331062655385e-15, -0.1566666551238175, -0.9384914320939914, -8.837033859189184e-16, 0.15666665513434086, 53.89959676186804, -2.2799297592359773e-14, -0.33644410722999124, 16.100403238124812, -4.162842098502896e-14, 0.3364441072207118, 16.100403238237963, -1.1819638445148091e-14, -0.33644410723551316, -16.10040323813091, -2.838236743529997e-15, 0.3364441072416481, 1.9023976459430803e-14, -1.9216719384386475e-27, 2.0997312524229976e-14, -1.9023976454152538e-14, -1.6224566206510003e-27, -2.0997312522706266e-14, -1.902397645955493e-14, -1.4229873893724684e-28, 2.099731252501901e-14, 1.9023976458908284e-14, 1.1589808333003648e-28, -2.099731252445278e-14, -2.2799297592359773e-14, 70.0, 2.230821750883213e-14, 2.279929759393195e-14, 1.808669709154701e-27, -2.230821750963783e-14, 2.2799297587662277e-14, 3.998828473134744e-28, 2.2308217509169584e-14, -2.279929759135017e-14, 2.439806668530837e-28, -2.230821750989413e-14, -0.07543269470244077, -2.8453207917643323e-14, 0.608541778782977, 0.07543269493766808, -3.0247580980591287e-14, -0.6085417787192219, 0.07543269476793668, -7.413546575135862e-15, 0.6085417788117928, -0.07543269472118785, 7.441805316007568e-15, -0.608541778789363, -0.33644410722999124, 2.230821750883213e-14, 53.11636697078448, 0.33644410717619017, 2.696951088175766e-14, 16.883633029162155, 0.3364441070384753, 7.316722831377446e-16, -16.883633029187564, -0.33644410719245404, 9.027120027495785e-15, 16.883633029158762, 0.9384914319598153, -4.378873471982452e-14, 0.1566666550737577, -0.9384914319177988, -3.016347562368066e-14, -0.1566666550608719, -0.938491431986526, -5.410733102716119e-15, 0.15666665506371635, 0.9384914319947419, 8.837033837547563e-16, -0.15666665507424138, 16.100403238124812, 2.279929759393195e-14, 0.33644410717619017, 53.89959676188234, 4.162842098713647e-14, -0.3364441071669104, -16.10040323823081, 1.181963844723793e-14, 0.33644410718171003, 16.10040323812376, 2.8382367407977395e-15, -0.33644410718784606, 4.757126428683599e-14, -4.7732020017416545e-27, 4.0732511301594855e-14, -4.757126428809004e-14, -2.995640360108403e-27, -4.0732511302154025e-14, -4.7571264288106813e-14, -8.32444864615592e-28, 4.073251130154043e-14, 4.757126428791201e-14, -1.8870301845270464e-28, -4.073251130172686e-14, -4.162842098502896e-14, 1.808669709154701e-27, 2.696951088175766e-14, 4.162842098713647e-14, 70.0, -2.696951088147255e-14, 4.162842098529136e-14, 1.4379845933140328e-27, 2.6969510881382173e-14, -4.1628420984220625e-14, 9.408162610748226e-28, -2.696951088135257e-14, 0.07543269463192495, 2.8453207917115935e-14, -0.6085417788383651, -0.07543269486715304, 3.024758098137451e-14, 0.6085417787746104, -0.07543269469742275, 7.413546576270115e-15, -0.6085417788671803, 0.07543269465067431, -7.441805315714752e-15, 0.6085417788447506, 0.3364441072207118, -2.230821750963783e-14, 16.883633029162155, -0.3364441071669104, -2.696951088147255e-14, 53.11636697089119, -0.3364441070291955, -7.316722832736654e-16, 16.883633029134216, 0.33644410718317314, -9.027120028509417e-15, -16.883633029105408, 0.9384914318563349, -4.37887347184338e-14, 0.15666665490048248, -0.9384914318143216, -3.01634756174105e-14, -0.1566666548875963, -0.9384914318830468, -5.4107331026860806e-15, 0.15666665489044046, 0.9384914318912646, 8.837033886477391e-16, -0.15666665490096543, 16.100403238237963, 2.2799297587662277e-14, 0.3364441070384753, -16.10040323823081, 4.162842098529136e-14, -0.3364441070291955, 53.89959676165604, 1.181963844322619e-14, 0.336444107043996, 16.10040323823691, 2.838236740441878e-15, -0.3364441070501295, 2.2950105157768148e-14, -1.4716907698002279e-27, 5.274690325578276e-15, -2.2950105157038145e-14, -7.492393223038041e-28, -5.2746903249790554e-15, -2.2950105159339862e-14, -1.4014816690553948e-28, 5.2746903257392886e-15, 2.2950105158456186e-14, -2.085959697995863e-28, -5.274690325799587e-15, -1.1819638445148091e-14, 3.998828473134744e-28, 7.316722831377446e-16, 1.181963844723793e-14, 1.4379845933140328e-27, -7.316722832736654e-16, 1.181963844322619e-14, 70.0, 7.316722831691137e-16, -1.1819638444049055e-14, 1.7041953445508346e-28, -7.316722832952297e-16, -0.07543269466985844, -2.8453207917150544e-14, 0.6085417788141787, 0.07543269490508542, -3.0247580980895964e-14, -0.6085417787504224, 0.0754326947353561, -7.413546575865469e-15, 0.6085417788429933, -0.07543269468860683, 7.441805315909263e-15, -0.6085417788205656, -0.33644410723551316, 2.2308217509169584e-14, -16.883633029187564, 0.33644410718171003, 2.6969510881382173e-14, 16.883633029134216, 0.336444107043996, 7.316722831691137e-16, 53.11636697084038, -0.3364441071979757, 9.027120028139132e-15, 16.883633029130817, -0.938491432012839, 4.378873471646655e-14, -0.1566666550948822, 0.9384914319708237, 3.0163475620850073e-14, 0.15666665508199573, 0.93849143203955, 5.410733106403062e-15, -0.156666655084841, -0.9384914320477664, -8.837033871514568e-16, 0.15666665509536398, -16.10040323813091, -2.279929759135017e-14, -0.33644410719245404, 16.10040323812376, -4.1628420984220625e-14, 0.33644410718317314, 16.10040323823691, -1.1819638444049055e-14, -0.3364441071979757, 53.899596761870136, -2.8382367436392133e-15, 0.3364441072041078, -8.437232701147589e-15, -8.906941084368019e-28, 1.8126610731803952e-14, 8.437232704627623e-15, -4.970828737675953e-28, -1.812661073035925e-14, 8.437232702626532e-15, -5.88992717936712e-28, 1.8126610732167516e-14, -8.437232701783737e-15, 7.845543539806074e-29, -1.812661073176984e-14, -2.838236743529997e-15, 2.439806668530837e-28, 9.027120027495785e-15, 2.8382367407977395e-15, 9.408162610748226e-28, -9.027120028509417e-15, 2.838236740441878e-15, 1.7041953445508346e-28, 9.027120028139132e-15, -2.8382367436392133e-15, 70.0, -9.027120028694517e-15, 0.0754326946359094, 2.8453207916947037e-14, -0.6085417788461589, -0.0754326948711376, 3.024758098159152e-14, 0.6085417787824046, -0.07543269470140826, 7.413546576515856e-15, -0.6085417788749747, 0.0754326946546591, -7.44180531566489e-15, 0.6085417788525462, 0.3364441072416481, -2.230821750989413e-14, 16.883633029158762, -0.33644410718784606, -2.696951088135257e-14, -16.883633029105408, -0.3364441070501295, -7.316722832952297e-16, 16.883633029130817, 0.3364441072041078, -9.027120028694517e-15, 53.11636697089799]]}, {"__ndarray__": [[24], "float64", [9.814928422499307, 3.09894909584325, 0.1330501081278967, 1.6122825198100144, 1.03298303194775, 4.193677529028354, 7.325887990964808, 1.03298303194775, 2.296413926706026, 4.101322951344605, 3.09894909584325, 2.0303137104502484, 1.3521392968063215, 3.09894909584325, 1.772480660908876, 10.075071645503154, 1.03298303194775, 2.5542469762474433, 4.361466174348462, 1.03298303194775, 3.9358444794870087, 7.065744767961023, 3.09894909584325, 0.39088315766929693]]}, {"__ndarray__": [[24], "float64", [-0.00046177627967933807, 2.3957223142414146e-15, -0.0005009356988104909, 0.00046177628026812707, -2.5543079284001817e-15, 0.0005009356989868712, 0.0004617762797418126, -2.8524221767977043e-15, -0.0005009356987571925, -0.0004617762796329724, 2.6781922930733416e-15, 0.0005009356988026294, 0.00014977280481461323, 1.8922936047925962e-15, -0.0004669184220281213, -0.00014977280498075832, -1.7262992369533878e-15, 0.0004669184218919289, -0.0001497728054387702, -1.9876903687897967e-15, -0.0004669184219446345, 0.0001497728049072852, 2.1583499349100577e-15, 0.0004669184218590105]]}, 0.2]