[{"__ndarray__": [[24, 24], "float64", [53.98988678589514, 0.0007200243739024785, -0.20365550345152583, 16.022231020171702, -1.1265584539754594e-05, 0.20461616097805574, 16.0127965852197, -0.0012164699738941688, -0.20547450576341386, -16.015078451127156, 0.0007048750819354431, 0.20643835435285313, -0.8644010671274331, -0.00016198623510963763, -0.028993843615159165, 0.8724510480207788, -0.0007046706610525734, 0.028767624786225993, 0.8546614959464842, -0.0004043754303612601, -0.031411272460206724, -0.8725474170995782, 0.0010738684441288855, 0.029712985151776228, 0.0007200243739024785, 69.99999900296656, 0.0005260767663748424, -0.0007358037268322343, 1.846854230729157e-07, -0.0005272607889694645, -0.0007218909257268361, 1.2828043120178555e-06, 0.0005283267881114773, 0.0007259802472323949, -7.697327654019009e-07, -0.0005298641808141431, -0.000764685421499593, 1.8410884123221332e-07, 0.0009305986152719246, 0.0007561895127849081, 3.3901664866178196e-07, -0.000929847679305848, 0.0007763847504421898, 5.450303138013926e-07, 0.0009330192061471818, -0.0007561988102826318, -7.688793252077393e-07, -0.0009310487267685906, -0.20365550345152583, 0.0005260767663748424, 53.311279579296645, 0.21724573949132864, -0.00011866127861358787, 16.68973299035148, 0.2052096859822865, -0.0009844212602217333, -16.690688476354218, -0.20906592096237447, 0.0004451804033194157, 16.692054401523713, -0.18303810646519064, 0.00014650814669669413, 0.5868715583837885, 0.19074867139665103, -0.0006914749738076201, -0.587500478067114, 0.17316998483386892, -0.0008066262468613657, 0.5845445279250541, -0.19061455085392548, 0.0014834184488863532, -0.5862941030592927, 16.022231020171702, -0.0007358037268322343, 0.21724573949132864, 53.965409339170996, 1.3672137703101912e-05, -0.21822492983789255, -16.024942036376842, 0.0012361301964869194, 0.21909961055232918, 16.027288196809373, -0.0007171844331943799, -0.220087140687575, 0.8559039626933873, 0.00016556452689089557, 0.042521037233801545, -0.864082587135778, 0.0007102731264587805, -0.04228286135203746, -0.8459881201951909, 0.00041267327580254845, 0.04497615079847511, 0.8641802249630177, -0.0010853251182186315, -0.043247606176286396, -1.1265584539754594e-05, 1.846854230729157e-07, -0.00011866127861358787, 1.3672137703101912e-05, 70.00000002741145, 0.000118836372397822, 1.1538628265627806e-05, -2.1484660039039333e-07, -0.00011901393077222406, -1.2244098017030365e-05, 1.7413658743146916e-07, 0.0001192334101606342, 0.0002168594232308594, -1.7600308574948944e-07, -0.00018434302092191227, -0.00021582439009448169, -1.1259679236193665e-08, 0.00018428066939419154, -0.00021838363960528174, 4.374072988341396e-09, -0.00018476207567175084, 0.00021564752306326725, 1.1501855930338343e-08, 0.00018442985401710763, 0.20461616097805574, -0.0005272607889694645, 16.68973299035148, -0.21822492983789255, 0.000118836372397822, 53.30925307887965, -0.2061725537303961, 0.00098596058241903, 16.69170370866445, 0.21003366203679624, -0.0004461215603777897, -16.693071393695238, 0.18247044808533563, -0.00014620582123480333, -0.5858345465303967, -0.19019082554612649, 0.0006919016365409486, 0.5864642464172227, -0.1725886313817464, 0.0008072090362416241, -0.5835045675608291, 0.19005666942488558, -0.0014843194627825738, 0.5852564834736995, 16.0127965852197, -0.0007218909257268361, 0.2052096859822865, -16.024942036376842, 1.1538628265627806e-05, -0.2061725537303961, 53.984516960355215, 0.0012187639142668535, 0.20703279016619525, 16.017772359911266, -0.0007063626441003144, -0.20799935110780116, 0.8653891250896721, 0.00016223680645218358, 0.03171719665079073, -0.8734543776448265, 0.0007055509944749917, -0.031489509080521005, -0.8556290430513314, 0.00040550075959592944, 0.034139108981703775, 0.8735504265975786, -0.0010753375482191545, -0.03243736784076939, -0.0012164699738941688, 1.2828043120178555e-06, -0.0009844212602217333, 0.0012361301964869194, -2.1484660039039333e-07, 0.00098596058241903, 0.0012187639142668535, 69.99999845727675, -0.0009872618508567255, -0.0012237604087005855, 9.90182358139763e-07, 0.0009892020255051817, 0.0005427989027631862, -2.2418568940739326e-07, -0.0016546690740499711, -0.000532227119965629, -4.821883092743991e-07, 0.0016536216166888286, -0.0005575047932371371, -7.646597449054062e-07, -0.001657687886711061, 0.0005322692822553493, 9.55616892727579e-07, 0.0016552558471674863, -0.20547450576341386, 0.0005283267881114773, -16.690688476354218, 0.21909961055232918, -0.00011901393077222406, 16.69170370866445, 0.20703279016619525, -0.0009872618508567255, 53.307338451266205, -0.2108981340061234, 0.0004469455441075904, 16.694030873524643, -0.1819991433245684, 0.0001460033733711321, 0.5846802249200339, 0.1897283391567966, -0.0006922771189804378, -0.585310835465847, 0.1721054603177007, -0.0008078206861208267, 0.5823477660307042, -0.1895944171278502, 0.0014850978868988433, -0.584101712586034, -16.015078451127156, 0.0007259802472323949, -0.20906592096237447, 16.027288196809373, -1.2244098017030365e-05, 0.21003366203679624, 16.017772359911266, -0.0012237604087005855, -0.2108981340061234, 53.97992187129155, 0.000709434664401208, 0.21187104331783607, -0.86074529049573, -0.00016314872954531945, -0.03389122847901155, 0.8688438733128555, -0.0007068455230881218, 0.03366026298559599, 0.8509378517357539, -0.00040770655612102453, -0.03632273391588073, -0.8689404115383859, 0.0010782904188064305, 0.034613049001491286, 0.0007048750819354431, -7.697327654019009e-07, 0.0004451804033194157, -0.0007171844331943799, 1.7413658743146916e-07, -0.0004461215603777897, -0.0007063626441003144, 9.90182358139763e-07, 0.0004469455441075904, 0.000709434664401208, 69.9999994303477, -0.000448151550699194, -0.0002152953416710051, 4.3822378049942705e-08, 0.0010063710334074208, 0.00020852984710604354, 3.342303251157148e-07, -0.00100573669839559, 0.00022460569307395647, 4.94646836488383e-07, 0.0010082544135351407, -0.00020860286751664135, -6.976334324541055e-07, -0.001006741584860865, 0.20643835435285313, -0.0005298641808141431, 16.692054401523713, -0.220087140687575, 0.0001192334101606342, -16.693071393695238, -0.20799935110780116, 0.0009892020255051817, 16.694030873524643, 0.21187104331783607, -0.000448151550699194, 53.30459752896377, 0.18080326014827203, -0.00014556945348530596, -0.583641777645123, -0.18854480881078006, 0.0006927903140659066, 0.5842734418844979, -0.17089235873677522, 0.0008085439228887714, -0.5813055969619826, 0.18841100155292645, -0.0014861844933713698, 0.5830625224058834, -0.8644010671274331, -0.000764685421499593, -0.18303810646519064, 0.8559039626933873, 0.0002168594232308594, 0.18247044808533563, 0.8653891250896721, 0.0005427989027631862, -0.1819991433245684, -0.86074529049573, -0.0002152953416710051, 0.18080326014827203, 53.836195081167084, 0.00020360012460240556, -0.34020785418732563, 16.161244385889248, -0.00027430832238741295, 0.3410998945395089, 16.1677605949932, 0.00011608841147721968, -0.33953778836567855, -16.16134679234474, 0.00017494221295177826, 0.34040928956293426, -0.00016198623510963763, 1.8410884123221332e-07, 0.00014650814669669413, 0.00016556452689089557, -1.7600308574948944e-07, -0.00014620582123480333, 0.00016223680645218358, -2.2418568940739326e-07, 0.0001460033733711321, -0.00016314872954531945, 4.3822378049942705e-08, -0.00014556945348530596, 0.00020360012460240556, 70.00000045031358, -0.0003962671103508018, -0.00020093173479311815, -2.6454293578424564e-07, 0.00039587845145048047, -0.00020713042874148034, -4.517133915204705e-07, -0.0003966741502674509, 0.00020179567021563188, 4.3820028525671384e-07, 0.0003963265638107246, -0.028993843615159165, 0.0009305986152719246, 0.5868715583837885, 0.042521037233801545, -0.00018434302092191227, -0.5858345465303967, 0.03171719665079073, -0.0016546690740499711, 0.5846802249200339, -0.03389122847901155, 0.0010063710334074208, -0.583641777645123, -0.34020785418732563, -0.0003962671103508018, 53.10532734349208, 0.34912890972360844, -0.00029729622269653543, 16.89451038083575, 0.32959415271183384, -0.00026383929350464293, -16.89744325678083, -0.349868370215375, 0.0008594450920347863, 16.895530073288715, 0.8724510480207788, 0.0007561895127849081, 0.19074867139665103, -0.864082587135778, -0.00021582439009448169, -0.19019082554612649, -0.8734543776448265, -0.000532227119965629, 0.1897283391567966, 0.8688438733128555, 0.00020852984710604354, -0.18854480881078006, 16.161244385889248, -0.00020093173479311815, 0.34912890972360844, 53.84125039954525, 0.0002772224644376067, -0.35001495382158354, -16.165106668853305, -0.0001122710327846768, 0.3484791134276424, 16.158853927001257, -0.00018068753612820754, -0.34933444551911125, -0.0007046706610525734, 3.3901664866178196e-07, -0.0006914749738076201, 0.0007102731264587805, -1.1259679236193665e-08, 0.0006919016365409486, 0.0007055509944749917, -4.821883092743991e-07, -0.0006922771189804378, -0.0007068455230881218, 3.342303251157148e-07, 0.0006927903140659066, -0.00027430832238741295, -2.6454293578424564e-07, -0.00029729622269653543, 0.0002772224644376067, 70.0000000380944, 0.00029710411100067433, 0.0002704898272594355, -6.294494170244704e-08, -0.0002981798955147216, -0.00027771190610645293, 1.0959448980978099e-07, 0.0002974321493760647, 0.028767624786225993, -0.000929847679305848, -0.587500478067114, -0.04228286135203746, 0.00018428066939419154, 0.5864642464172227, -0.031489509080521005, 0.0016536216166888286, -0.585310835465847, 0.03366026298559599, -0.00100573669839559, 0.5842734418844979, 0.3410998945395089, 0.00039587845145048047, 16.89451038083575, -0.35001495382158354, 0.00029710411100067433, 53.10565164094047, -0.3304948239524505, 0.0002636525921476156, 16.897278983305284, 0.3507543660720877, -0.0008589530821761437, -16.895367379814314, 0.8546614959464842, 0.0007763847504421898, 0.17316998483386892, -0.8459881201951909, -0.00021838363960528174, -0.1725886313817464, -0.8556290430513314, -0.0005575047932371371, 0.1721054603177007, 0.8509378517357539, 0.00022460569307395647, -0.17089235873677522, 16.1677605949932, -0.00020713042874148034, 0.32959415271183384, -16.165106668853305, 0.0002704898272594355, -0.3304948239524505, 53.828159553938676, -0.00012140965869522933, 0.3288961748153661, 16.16520433562077, -0.0001670517400363454, -0.3297899586016496, -0.0004043754303612601, 5.450303138013926e-07, -0.0008066262468613657, 0.00041267327580254845, 4.374072988341396e-09, 0.0008072090362416241, 0.00040550075959592944, -7.646597449054062e-07, -0.0008078206861208267, -0.00040770655612102453, 4.94646836488383e-07, 0.0008085439228887714, 0.00011608841147721968, -4.517133915204705e-07, -0.00026383929350464293, -0.0001122710327846768, -6.294494170244704e-08, 0.0002636525921476156, -0.00012140965869522933, 70.00000001871626, -0.00026524730112132615, 0.00011150023107905151, 2.1655060844412515e-07, 0.00026412797630401367, -0.031411272460206724, 0.0009330192061471818, 0.5845445279250541, 0.04497615079847511, -0.00018476207567175084, -0.5835045675608291, 0.034139108981703775, -0.001657687886711061, 0.5823477660307042, -0.03632273391588073, 0.0010082544135351407, -0.5813055969619826, -0.33953778836567855, -0.0003966741502674509, -16.89744325678083, 0.3484791134276424, -0.0002981798955147216, 16.897278983305284, 0.3288961748153661, -0.00026524730112132615, 53.09978041972307, -0.34921875345832637, 0.0008612777087817567, 16.89830172428342, -0.8725474170995782, -0.0007561988102826318, -0.19061455085392548, 0.8641802249630177, 0.00021564752306326725, 0.19005666942488558, 0.8735504265975786, 0.0005322692822553493, -0.1895944171278502, -0.8689404115383859, -0.00020860286751664135, 0.18841100155292645, -16.16134679234474, 0.00020179567021563188, -0.349868370215375, 16.158853927001257, -0.00027771190610645293, 0.3507543660720877, 16.16520433562077, 0.00011150023107905151, -0.34921875345832637, 53.84104570666463, 0.0001813008667187892, 0.3500740545984741, 0.0010738684441288855, -7.688793252077393e-07, 0.0014834184488863532, -0.0010853251182186315, 1.1501855930338343e-08, -0.0014843194627825738, -0.0010753375482191545, 9.55616892727579e-07, 0.0014850978868988433, 0.0010782904188064305, -6.976334324541055e-07, -0.0014861844933713698, 0.00017494221295177826, 4.3820028525671384e-07, 0.0008594450920347863, -0.00018068753612820754, 1.0959448980978099e-07, -0.0008589530821761437, -0.0001670517400363454, 2.1655060844412515e-07, 0.0008612777087817567, 0.0001813008667187892, 69.9999997350486, -0.0008597820982352881, 0.029712985151776228, -0.0009310487267685906, -0.5862941030592927, -0.043247606176286396, 0.00018442985401710763, 0.5852564834736995, -0.03243736784076939, 0.0016552558471674863, -0.584101712586034, 0.034613049001491286, -0.001006741584860865, 0.5830625224058834, 0.34040928956293426, 0.0003963265638107246, 16.895530073288715, -0.34933444551911125, 0.0002974321493760647, -16.895367379814314, -0.3297899586016496, 0.00026412797630401367, 16.89830172428342, 0.3500740545984741, -0.0008597820982352881, 53.10361239204393]]}, {"__ndarray__": [[24], "float64", [9.851962556604764, 3.111495154339232, 0.14323130538194448, 1.6215112729105368, 1.037165237117028, 4.201013351681082, 7.358249415649921, 1.0371655856008284, 2.315353977049223, 4.115225125654307, 3.111495096320056, 2.028890789882478, 1.361134891503649, 3.1114958245588027, 1.7501246729058575, 10.112338965755349, 1.0371648429572917, 2.594119950864656, 4.3756035055259845, 1.0371648479756044, 3.922247369086617, 7.097874083282115, 3.111495802907143, 0.42199759553293914]]}, {"__ndarray__": [[24], "float64", [-7.413605007229442e-05, 7.177679820583794e-07, -6.792136214048247e-05, 8.510683665759143e-05, -6.053703109383775e-08, 6.867920279243908e-05, 7.550107151187606e-05, -1.0479802155062312e-06, -6.949711120417505e-05, -7.875174247527324e-05, 6.196632457177205e-07, 7.052247814013671e-05, 2.040790725640058e-05, -2.776724902020736e-07, -9.58516163195322e-05, -1.428202934935262e-05, -2.351945506748955e-07, 9.551994274009731e-05, -2.8101816745154206e-05, -2.9149168265550327e-07, -9.774669312573825e-05, 1.4255823216206437e-05, 5.754447423564413e-07, 9.62951591172549e-05]]}, 0.2]