[{"__ndarray__": [[24, 24], "float64", [53.982526606414396, 0.002690954036555355, -0.18849755619708597, 16.01886876820216, -0.0018470811520604315, 0.1874770083527354, 16.029641077664106, -0.0011169957137831129, -0.18492873981244434, -16.026760746921955, 0.0010473420799076184, 0.18523991205791424, -0.8411084703862356, 0.0010767098704601455, 0.008158868751953402, 0.8369367099327643, -0.0029187329143175577, -0.006793871269279245, 0.8517685848440968, -0.00011736091510017099, 0.009197554539779218, -0.851872529805844, 0.0011851646684492212, -0.009853176379950895, 0.002690954036555355, 69.99999547560256, 0.0023536854298511073, -0.0026927605939828154, 3.482028143747503e-06, -0.0023516997677931993, -0.002723348236911746, 2.2629577981152128e-06, 0.0023452805653060528, 0.0027172478908644602, -1.3689772062995499e-06, -0.002346286443995798, -0.0007519354217804955, -3.543622036110331e-06, 0.0022932347239409804, 0.0007603731663053322, 4.278230370400474e-06, -0.002295333967362247, 0.0007241836639376065, 6.630219089378384e-07, 0.0022893416562202425, -0.0007247145048494899, -1.2492415334062233e-06, -0.0022882221961139995, -0.18849755619708597, 0.0023536854298511073, 53.312800131641126, 0.18903622705107798, -0.00200768919966001, 16.686224444830646, 0.2025306018331609, -0.0007355919540403688, -16.68353102203184, -0.19975639972161974, 0.000294502401957608, 16.683870178535155, -0.170533771260663, 0.0011485447980402953, 0.6093373548904453, 0.16713116065835087, -0.0013456218957530342, -0.6080950106551327, 0.18090302709589867, -0.00015622087203271296, 0.6106879549030044, -0.18081328933844237, 0.00044839135075891765, -0.6112940322134582, 16.01886876820216, -0.0026927605939828154, 0.18903622705107798, 53.97973687977786, 0.0018485977760372063, -0.18801531086892054, -16.03104829021246, 0.0011177996392854684, 0.18546392452419186, 16.028167006875346, -0.0010478456014059489, -0.18577572298336542, 0.8416156564028576, -0.0010800359955766285, -0.0064735653254776315, -0.8374398102074904, 0.002920253146706755, 0.005108849446904262, -0.8522885638340288, 0.00011924528586910892, -0.007514517790027125, 0.8523883530523026, -0.0011852536170311712, 0.008170115901994235, -0.0018470811520604315, 3.482028143747503e-06, -0.00200768919966001, 0.0018485977760372063, 69.99999764162966, 0.0020061675620442255, 0.0018707380645889638, -1.522211942134765e-06, -0.002001555156595689, -0.0018661320930234686, 1.1459415587908913e-06, 0.002002268109588639, 0.0004472095192757815, 2.227803789540745e-06, -0.001632739890586805, -0.0004531311617968081, -3.249881585526894e-06, 0.001634470307088555, -0.00042816323731110465, -5.161722452564448e-07, -0.001630055839018553, 0.00042796228423131106, 7.908626265056784e-07, 0.001629134107097961, 0.1874770083527354, -0.0023516997677931993, 16.686224444830646, -0.18801531086892054, 0.0020061675620442255, 53.31475030544734, -0.20149588350362369, 0.0007346536018342195, 16.68255931804378, 0.19872398283614806, -0.00029391774245489746, -16.682897929403243, 0.17119621716368782, -0.0011463213461650435, -0.6104190506959488, -0.1677975005156062, 0.001343981601605223, 0.609177142502809, -0.18155285523965953, 0.00015523089350856612, -0.6117676442280244, 0.18146434165448766, -0.00044809486170390486, 0.612373413602689, 16.029641077664106, -0.002723348236911746, 0.2025306018331609, -16.03104829021246, 0.0018707380645889638, -0.20149588350362369, 53.957966619967365, 0.0011322283034180375, 0.19890331524119348, 16.03911118175486, -0.0010571400479982662, -0.19922126992456818, 0.8322056342604498, -0.0011021268694127674, 0.006467465292036012, -0.8279756106867449, 0.0029489739835332845, -0.007847667186636959, -0.8430513438605456, 0.00012319474340137513, 0.005402487973635656, 0.8431507311702872, -0.0011925199006851558, -0.0047390497683580945, -0.0011169957137831129, 2.2629577981152128e-06, -0.0007355919540403688, 0.0011177996392854684, -1.522211942134765e-06, 0.0007346536018342195, 0.0011322283034180375, 69.99999908760793, -0.000731640984464616, -0.0011294108718152218, 7.66050630759901e-07, 0.0007320754950373067, 0.0006361388035496501, 2.1135750890962375e-06, -0.0010555195603196598, -0.0006401879345035759, -1.9923030142738814e-06, 0.0010565133513512285, -0.0006238732729978955, -6.980695998710883e-07, -0.0010536643759676044, 0.0006243010468114096, -1.760689262024513e-08, 0.001053174426537868, -0.18492873981244434, 0.0023452805653060528, -16.68353102203184, 0.18546392452419186, -0.002001555156595689, 16.68255931804378, 0.19890331524119348, -0.000731640984464616, 53.320122703270584, -0.19614030884502887, 0.0002919192949170813, 16.680214746404463, -0.17262970888995066, 0.001142009665495648, 0.6133794157279779, 0.16924222778035902, -0.0013377366459228044, -0.6121411829474208, 0.18295105989145877, -0.00015486482735720065, 0.6147232945681038, -0.18286176976887974, 0.00044658814775310536, -0.6153272731355794, -16.026760746921955, 0.0027172478908644602, -0.19975639972161974, 16.028167006875346, -0.0018661320930234686, 0.19872398283614806, 16.03911118175486, -0.0011294108718152218, -0.19614030884502887, 53.96380420319916, 0.0010553173456428816, 0.19645676227822617, -0.8330096199031423, 0.0010959300018445585, -0.0029522445293027333, 0.8287911958164953, -0.002943411902424295, 0.00433055530495044, 0.843818243286438, -0.00012089586064076304, -0.0018929069127558706, -0.8439214641643578, 0.0011913554496332725, 0.001230559632609568, 0.0010473420799076184, -1.3689772062995499e-06, 0.000294502401957608, -0.0010478456014059489, 1.1459415587908913e-06, -0.00029391774245489746, -0.0010571400479982662, 7.66050630759901e-07, 0.0002919192949170813, 0.0010553173456428816, 69.9999996290154, -0.0002922489821192343, 0.0001631961448835876, -1.1275654877791814e-06, 0.001033864980591746, -0.000160543858946234, 1.3997349370927043e-06, -0.0010344467508005431, -0.00017179163940721985, 1.9499179559189686e-07, 0.0010326913309024158, 0.0001714655773896028, -6.391916379421124e-07, -0.001032364532988432, 0.18523991205791424, -0.002346286443995798, 16.683870178535155, -0.18577572298336542, 0.002002268109588639, -16.682897929403243, -0.19922126992456818, 0.0007320754950373067, 16.680214746404463, 0.19645676227822617, -0.0002922489821192343, 53.319447715735265, 0.17240076019443967, -0.0011428646547779506, -0.6129213740318546, -0.16901149881324368, 0.0013387384768333982, 0.6116823694798464, -0.1827270344574327, 0.00015484375206598265, -0.6142658612748197, 0.18263809152714644, -0.00044652581176546303, 0.6148701546551381, -0.8411084703862356, -0.0007519354217804955, -0.170533771260663, 0.8416156564028576, 0.0004472095192757815, 0.17119621716368782, 0.8322056342604498, 0.0006361388035496501, -0.17262970888995066, -0.8330096199031423, 0.0001631961448835876, 0.17240076019443967, 53.785209631923244, 7.993107039723632e-05, -0.33793632555976527, 16.215777223095195, -0.0006299235178647306, 0.3374978511832606, 16.20912921995864, 0.00025388962106331024, -0.33909214324294196, -16.209819275404435, -0.0001985062442013364, 0.33909712060537944, 0.0010767098704601455, -3.543622036110331e-06, 0.0011485447980402953, -0.0010800359955766285, 2.227803789540745e-06, -0.0011463213461650435, -0.0011021268694127674, 2.1135750890962375e-06, 0.001142009665495648, 0.0010959300018445585, -1.1275654877791814e-06, -0.0011428646547779506, 7.993107039723632e-05, 70.00000411442969, 0.002731679179369585, -7.600406081942443e-05, 4.791752994088235e-06, -0.0027348050109275834, -9.91100465185707e-05, -3.4732953886738457e-06, 0.0027299678501790407, 0.00010470602970558726, -5.103078633134486e-06, -0.002728210481195938, 0.008158868751953402, 0.0022932347239409804, 0.6093373548904453, -0.0064735653254776315, -0.001632739890586805, -0.6104190506959488, 0.006467465292036012, -0.0010555195603196598, 0.6133794157279779, -0.0029522445293027333, 0.001033864980591746, -0.6129213740318546, -0.33793632555976527, 0.002731679179369585, 53.15105782938985, 0.33308141680410885, -0.004295874140965182, 16.850373663217038, 0.34845586235993425, -1.8773471735891484e-05, -16.847638186212368, -0.348801477788836, 0.0009441281479762304, 16.84683034785142, 0.8369367099327643, 0.0007603731663053322, 0.16713116065835087, -0.8374398102074904, -0.0004531311617968081, -0.1677975005156062, -0.8279756106867449, -0.0006401879345035759, 0.16924222778035902, 0.8287911958164953, -0.000160543858946234, -0.16901149881324368, 16.215777223095195, -7.600406081942443e-05, 0.33308141680410885, 53.783222035174944, 0.0006213101541710864, -0.33263844948138055, -16.210069220022245, -0.00025375925578834883, 0.3342435349773704, 16.210757476950302, 0.00020194297603431602, -0.33425089160350585, -0.0029187329143175577, 4.278230370400474e-06, -0.0013456218957530342, 0.002920253146706755, -3.249881585526894e-06, 0.001343981601605223, 0.0029489739835332845, -1.9923030142738814e-06, -0.0013377366459228044, -0.002943411902424295, 1.3997349370927043e-06, 0.0013387384768333982, -0.0006299235178647306, 4.791752994088235e-06, -0.004295874140965182, 0.0006213101541710864, 69.99999632180293, 0.0042974195100063586, 0.000655942084831454, -1.8920149431045124e-06, -0.004291912512279578, -0.0006544110347686107, 3.4267831113667756e-07, 0.004291005606466106, -0.006793871269279245, -0.002295333967362247, -0.6080950106551327, 0.005108849446904262, 0.001634470307088555, 0.609177142502809, -0.007847667186636959, 0.0010565133513512285, -0.6121411829474208, 0.00433055530495044, -0.0010344467508005431, 0.6116823694798464, 0.3374978511832606, -0.0027348050109275834, 16.850373663217038, -0.33263844948138055, 0.0042974195100063586, 53.14819512705952, -0.3480324626976245, 2.0583750736769126e-05, 16.849067013825316, 0.348375194695242, -0.0009444011583571042, -16.848259122618522, 0.8517685848440968, 0.0007241836639376065, 0.18090302709589867, -0.8522885638340288, -0.00042816323731110465, -0.18155285523965953, -0.8430513438605456, -0.0006238732729978955, 0.18295105989145877, 0.843818243286438, -0.00017179163940721985, -0.1827270344574327, 16.20912921995864, -9.91100465185707e-05, 0.34845586235993425, -16.210069220022245, 0.000655942084831454, -0.3480324626976245, 53.796391153369484, -0.00025087576504447294, 0.34959206065710396, 16.204301926312265, 0.0001936882372106026, -0.34958965780273316, -0.00011736091510017099, 6.630219089378384e-07, -0.00015622087203271296, 0.00011924528586910892, -5.161722452564448e-07, 0.00015523089350856612, 0.00012319474340137513, -6.980695998710883e-07, -0.00015486482735720065, -0.00012089586064076304, 1.9499179559189686e-07, 0.00015484375206598265, 0.00025388962106331024, -3.4732953886738457e-06, -1.8773471735891484e-05, -0.00025375925578834883, -1.8920149431045124e-06, 2.0583750736769126e-05, -0.00025087576504447294, 70.00000363915518, -1.9129688080226124e-05, 0.00024656214616320895, 2.0823832883704957e-06, 1.8330462879598443e-05, 0.009197554539779218, 0.0022893416562202425, 0.6106879549030044, -0.007514517790027125, -0.001630055839018553, -0.6117676442280244, 0.005402487973635656, -0.0010536643759676044, 0.6147232945681038, -0.0018929069127558706, 0.0010326913309024158, -0.6142658612748197, -0.33909214324294196, 0.0027299678501790407, -16.847638186212368, 0.3342435349773704, -0.004291912512279578, 16.849067013825316, 0.34959206065710396, -1.9129688080226124e-05, 53.153663443740484, -0.34993607019741196, 0.0009427615463220205, 16.845529984814917, -0.851872529805844, -0.0007247145048494899, -0.18081328933844237, 0.8523883530523026, 0.00042796228423131106, 0.18146434165448766, 0.8431507311702872, 0.0006243010468114096, -0.18286176976887974, -0.8439214641643578, 0.0001714655773896028, 0.18263809152714644, -16.209819275404435, 0.00010470602970558726, -0.348801477788836, 16.210757476950302, -0.0006544110347686107, 0.348375194695242, 16.204301926312265, 0.00024656214616320895, -0.34993607019741196, 53.79501478183536, -0.00019587156939095685, 0.34993497940976975, 0.0011851646684492212, -1.2492415334062233e-06, 0.00044839135075891765, -0.0011852536170311712, 7.908626265056784e-07, -0.00044809486170390486, -0.0011925199006851558, -1.760689262024513e-08, 0.00044658814775310536, 0.0011913554496332725, -6.391916379421124e-07, -0.00044652581176546303, -0.0001985062442013364, -5.103078633134486e-06, 0.0009441281479762304, 0.00020194297603431602, 3.4267831113667756e-07, -0.0009444011583571042, 0.0001936882372106026, 2.0823832883704957e-06, 0.0009427615463220205, -0.00019587156939095685, 70.00000379319448, -0.0009428473609628094, -0.009853176379950895, -0.0022882221961139995, -0.6112940322134582, 0.008170115901994235, 0.001629134107097961, 0.612373413602689, -0.0047390497683580945, 0.001053174426537868, -0.6153272731355794, 0.001230559632609568, -0.001032364532988432, 0.6148701546551381, 0.33909712060537944, -0.002728210481195938, 16.84683034785142, -0.33425089160350585, 0.004291005606466106, -16.848259122618522, -0.34958965780273316, 1.8330462879598443e-05, 16.845529984814917, 0.34993497940976975, -0.0009428473609628094, 53.155276526906746]]}, {"__ndarray__": [[24], "float64", [9.870804285333863, 3.1177685178450982, 0.14427314429045432, 1.6258022781276495, 1.0392561671638103, 4.208730312275137, 7.374104169398693, 1.0392563561028099, 2.3207742839908065, 4.122502280800473, 3.117768392376382, 2.0322289468120474, 1.3673452850109473, 3.1177677723670056, 1.7473719869559678, 10.129262434969197, 1.039257469914285, 2.605631161661827, 4.380957678676571, 1.0392563007072229, 3.923873447116553, 7.115649428393548, 3.117768355605411, 0.4291299611617227]]}, {"__ndarray__": [[24], "float64", [-0.00024553031348389465, 2.767190096038292e-06, -0.0002607728552162153, 0.00024679972938537216, -1.8954520314102319e-06, 0.00025935445122727765, 0.00026225693037671864, -1.1767212872893864e-06, -0.0002563874937222075, -0.00025871954647930286, 8.26714995502264e-07, 0.0002566667783931606, 0.00016242328532400355, 2.022006068007744e-06, -0.00026279949239989134, -0.0001670541132020266, -2.8380818521419867e-06, 0.00026474737271332637, -0.00015040398084887883, -7.876632652158802e-08, -0.0002614483798289111, 0.0001502280089280086, 3.73110337814893e-07, 0.00026063961883346067]]}, 0.2]